 Entering Gaussian System, Link 0=/usr/local/g03/g03
 AtFile(1): /home/mchen10/g03/basis/avdzpp.gbs
 AtFile(1): /home/mchen10/g03/basis/pp.gbs
 Initial command:
 /usr/local/g03/l1.exe /scr/11456/Gau-18780.inp -scrdir=/scr/11456/
 Default is to use a total of   2 processors:
                                2 via shared-memory
                                1 via Linda
 Entering Link 1 = /usr/local/g03/l1.exe PID=     18781.
  
 Copyright (c) 1988,1990,1992,1993,1995,1998,2003,2004, Gaussian, Inc.
                  All Rights Reserved.
  
 This is the Gaussian(R) 03 program.  It is based on the
 the Gaussian(R) 98 system (copyright 1998, Gaussian, Inc.),
 the Gaussian(R) 94 system (copyright 1995, Gaussian, Inc.),
 the Gaussian 92(TM) system (copyright 1992, Gaussian, Inc.),
 the Gaussian 90(TM) system (copyright 1990, Gaussian, Inc.),
 the Gaussian 88(TM) system (copyright 1988, Gaussian, Inc.),
 the Gaussian 86(TM) system (copyright 1986, Carnegie Mellon
 University), and the Gaussian 82(TM) system (copyright 1983,
 Carnegie Mellon University). Gaussian is a federally registered
 trademark of Gaussian, Inc.
  
 This software contains proprietary and confidential information,
 including trade secrets, belonging to Gaussian, Inc.
  
 This software is provided under written license and may be
 used, copied, transmitted, or stored only in accord with that
 written license.
  
 The following legend is applicable only to US Government
 contracts under FAR:
  
                    RESTRICTED RIGHTS LEGEND
  
 Use, reproduction and disclosure by the US Government is
 subject to restrictions as set forth in subparagraphs (a)
 and (c) of the Commercial Computer Software - Restricted
 Rights clause in FAR 52.227-19.
  
 Gaussian, Inc.
 340 Quinnipiac St., Bldg. 40, Wallingford CT 06492
  
  
 ---------------------------------------------------------------
 Warning -- This program may not be used in any manner that
 competes with the business of Gaussian, Inc. or will provide
 assistance to any competitor of Gaussian, Inc.  The licensee
 of this program is prohibited from giving any competitor of
 Gaussian, Inc. access to this program.  By using this program,
 the user acknowledges that Gaussian, Inc. is engaged in the
 business of creating and licensing software in the field of
 computational chemistry and represents and warrants to the
 licensee that it is not a competitor of Gaussian, Inc. and that
 it will not use this program in any manner prohibited above.
 ---------------------------------------------------------------
  

 Cite this work as:
 Gaussian 03, Revision D.02,
 M. J. Frisch, G. W. Trucks, H. B. Schlegel, G. E. Scuseria, 
 M. A. Robb, J. R. Cheeseman, J. A. Montgomery, Jr., T. Vreven, 
 K. N. Kudin, J. C. Burant, J. M. Millam, S. S. Iyengar, J. Tomasi, 
 V. Barone, B. Mennucci, M. Cossi, G. Scalmani, N. Rega, 
 G. A. Petersson, H. Nakatsuji, M. Hada, M. Ehara, K. Toyota, 
 R. Fukuda, J. Hasegawa, M. Ishida, T. Nakajima, Y. Honda, O. Kitao, 
 H. Nakai, M. Klene, X. Li, J. E. Knox, H. P. Hratchian, J. B. Cross, 
 V. Bakken, C. Adamo, J. Jaramillo, R. Gomperts, R. E. Stratmann, 
 O. Yazyev, A. J. Austin, R. Cammi, C. Pomelli, J. W. Ochterski, 
 P. Y. Ayala, K. Morokuma, G. A. Voth, P. Salvador, J. J. Dannenberg, 
 V. G. Zakrzewski, S. Dapprich, A. D. Daniels, M. C. Strain, 
 O. Farkas, D. K. Malick, A. D. Rabuck, K. Raghavachari, 
 J. B. Foresman, J. V. Ortiz, Q. Cui, A. G. Baboul, S. Clifford, 
 J. Cioslowski, B. B. Stefanov, G. Liu, A. Liashenko, P. Piskorz, 
 I. Komaromi, R. L. Martin, D. J. Fox, T. Keith, M. A. Al-Laham, 
 C. Y. Peng, A. Nanayakkara, M. Challacombe, P. M. W. Gill, 
 B. Johnson, W. Chen, M. W. Wong, C. Gonzalez, and J. A. Pople, 
 Gaussian, Inc., Wallingford CT, 2004.
 
 ******************************************
 Gaussian 03:  AM64L-G03RevD.02  1-Mar-2006
                15-Feb-2008 
 ******************************************
 %Chk=rhco.aloh4.singlet.b3lyp.ad.opt.fre.chk
 %Mem=100MW
 Default route:  MaxDisk=348GB
 ----------------------------------------
 #p opt freq=noraman b3lyp pop=npa genecp
 ----------------------------------------
 1/14=-1,18=20,26=3,38=1/1,3;
 2/9=110,17=6,18=5,40=1/2;
 3/5=7,11=2,16=1,17=8,25=1,30=1,74=-5/1,2,3;
 4//1;
 5/5=2,38=5/2;
 6/7=2,8=2,9=2,10=2,28=1,40=-1/1,7;
 7//1,2,3,16;
 1/14=-1,18=20/3(3);
 2/9=110/2;
 6/7=2,8=2,9=2,10=2,19=2,28=1,40=-1/1,7;
 99//99;
 2/9=110/2;
 3/5=7,6=1,11=2,16=1,17=8,25=1,30=1,74=-5,82=7/1,2,3;
 4/5=5,16=3/1;
 5/5=2,38=5/2;
 7//1,2,3,16;
 1/14=-1,18=20/3(-5);
 2/9=110/2;
 6/7=2,8=2,9=2,10=2,19=2,28=1,40=-1/1,7;
 99/9=1/99;
 Leave Link    1 at Fri Feb 15 08:58:01 2008, MaxMem=  104857600 cpu:       1.9
 (Enter /usr/local/g03/l101.exe)
 -----------------------
 Rh(CO)+Al(OH)4-,singlet
 -----------------------
 Symbolic Z-matrix:
 Charge =  0 Multiplicity = 1
 Al
 O                    1    B1
 O                    1    B2       2    A1
 O                    1    B3       3    A2       2    D1       0
 O                    1    B4       4    A3       3    D2       0
 H                    4    B5       1    A4       3    D3       0
 H                    2    B6       1    A5       4    D4       0
 H                    5    B7       1    A6       4    D5       0
 H                    3    B8       1    A7       4    D6       0
 Rh                   5    B9       1    A8       4    D7       0
 C                    10   B10      5    A9       1    D8       0
 O                    11   B11      2    A10      1    D9       0
       Variables:
  B1                    1.8426                   
  B2                    1.75343                  
  B3                    1.74565                  
  B4                    1.8344                   
  B5                    0.95909                  
  B6                    0.96122                  
  B7                    0.95934                  
  B8                    0.95955                  
  B9                    2.09088                  
  B10                   2.10508                  
  B11                   1.25334                  
  A1                  107.09713                  
  A2                  119.14087                  
  A3                  108.48909                  
  A4                  121.516                    
  A5                  123.10395                  
  A6                  129.25268                  
  A7                  120.59919                  
  A8                   99.35204                  
  A9                  158.12445                  
  A10                 137.59041                  
  D1                 -134.63074                  
  D2                  134.48433                  
  D3                   26.94177                  
  D4                  104.55233                  
  D5                  -79.16042                  
  D6                   16.82971                  
  D7                  128.81805                  
  D8                   49.60952                  
  D9                 -136.69854                  
 
                    Isotopes and Nuclear Properties:
 (Nuclear quadrupole moments (NQMom) in fm**2, nuclear magnetic moments (NMagM)
  in nuclear magnetons)

  Atom         1           2           3           4           5           6           7           8           9          10
 IAtWgt=          27          16          16          16          16           1           1           1           1         103
 AtmWgt=  26.9815413  15.9949146  15.9949146  15.9949146  15.9949146   1.0078250   1.0078250   1.0078250   1.0078250 102.9048000
 NucSpn=           5           0           0           0           0           1           1           1           1           1
 AtZEff=   0.0000000   0.0000000   0.0000000   0.0000000   0.0000000   0.0000000   0.0000000   0.0000000   0.0000000   0.0000000
 NQMom=   14.6600000   0.0000000   0.0000000   0.0000000   0.0000000   0.0000000   0.0000000   0.0000000   0.0000000   0.0000000
 NMagM=    3.6415040   0.0000000   0.0000000   0.0000000   0.0000000   2.7928460   2.7928460   2.7928460   2.7928460  -0.0884000

  Atom        11          12
 IAtWgt=          12          16
 AtmWgt=  12.0000000  15.9949146
 NucSpn=           0           0
 AtZEff=   0.0000000   0.0000000
 NQMom=    0.0000000   0.0000000
 NMagM=    0.0000000   0.0000000
 Leave Link  101 at Fri Feb 15 08:58:04 2008, MaxMem=  104857600 cpu:       1.2
 (Enter /usr/local/g03/l103.exe)

 GradGradGradGradGradGradGradGradGradGradGradGradGradGradGradGradGradGrad
 Berny optimization.
 Initialization pass.
                           ----------------------------
                           !    Initial Parameters    !
                           ! (Angstroms and Degrees)  !
 --------------------------                            --------------------------
 ! Name  Definition              Value          Derivative Info.                !
 --------------------------------------------------------------------------------
 ! R1    R(1,2)                  1.8426         estimate D2E/DX2                !
 ! R2    R(1,3)                  1.7534         estimate D2E/DX2                !
 ! R3    R(1,4)                  1.7457         estimate D2E/DX2                !
 ! R4    R(1,5)                  1.8344         estimate D2E/DX2                !
 ! R5    R(2,7)                  0.9612         estimate D2E/DX2                !
 ! R6    R(2,10)                 2.1028         estimate D2E/DX2                !
 ! R7    R(3,9)                  0.9596         estimate D2E/DX2                !
 ! R8    R(4,6)                  0.9591         estimate D2E/DX2                !
 ! R9    R(5,8)                  0.9593         estimate D2E/DX2                !
 ! R10   R(5,10)                 2.0909         estimate D2E/DX2                !
 ! R11   R(10,11)                2.1051         estimate D2E/DX2                !
 ! R12   R(11,12)                1.2533         estimate D2E/DX2                !
 ! A1    A(2,1,3)              107.0971         estimate D2E/DX2                !
 ! A2    A(2,1,4)              116.3167         estimate D2E/DX2                !
 ! A3    A(2,1,5)               86.0838         estimate D2E/DX2                !
 ! A4    A(3,1,4)              119.1409         estimate D2E/DX2                !
 ! A5    A(3,1,5)              115.2143         estimate D2E/DX2                !
 ! A6    A(4,1,5)              108.4891         estimate D2E/DX2                !
 ! A7    A(1,2,7)              123.1039         estimate D2E/DX2                !
 ! A8    A(1,2,10)              98.6571         estimate D2E/DX2                !
 ! A9    A(7,2,10)             119.8711         estimate D2E/DX2                !
 ! A10   A(1,3,9)              120.5992         estimate D2E/DX2                !
 ! A11   A(1,4,6)              121.516          estimate D2E/DX2                !
 ! A12   A(1,5,8)              129.2527         estimate D2E/DX2                !
 ! A13   A(1,5,10)              99.352          estimate D2E/DX2                !
 ! A14   A(8,5,10)             124.8862         estimate D2E/DX2                !
 ! A15   A(2,10,5)              73.5165         estimate D2E/DX2                !
 ! A16   A(2,10,11)             95.124          estimate D2E/DX2                !
 ! A17   A(5,10,11)            158.1244         estimate D2E/DX2                !
 ! A18   L(10,11,12,2,-1)      180.0            estimate D2E/DX2                !
 ! A19   L(10,11,12,2,-2)      180.0            estimate D2E/DX2                !
 ! D1    D(3,1,2,7)            -31.5444         estimate D2E/DX2                !
 ! D2    D(3,1,2,10)           102.9371         estimate D2E/DX2                !
 ! D3    D(4,1,2,7)            104.5523         estimate D2E/DX2                !
 ! D4    D(4,1,2,10)          -120.9662         estimate D2E/DX2                !
 ! D5    D(5,1,2,7)           -146.7387         estimate D2E/DX2                !
 ! D6    D(5,1,2,10)           -12.2572         estimate D2E/DX2                !
 ! D7    D(2,1,3,9)            151.4605         estimate D2E/DX2                !
 ! D8    D(4,1,3,9)             16.8297         estimate D2E/DX2                !
 ! D9    D(5,1,3,9)           -114.7637         estimate D2E/DX2                !
 ! D10   D(2,1,4,6)           -103.6954         estimate D2E/DX2                !
 ! D11   D(3,1,4,6)             26.9418         estimate D2E/DX2                !
 ! D12   D(5,1,4,6)            161.4261         estimate D2E/DX2                !
 ! D13   D(2,1,5,8)            164.3737         estimate D2E/DX2                !
 ! D14   D(2,1,5,10)            12.3522         estimate D2E/DX2                !
 ! D15   D(3,1,5,8)             57.3073         estimate D2E/DX2                !
 ! D16   D(3,1,5,10)           -94.7142         estimate D2E/DX2                !
 ! D17   D(4,1,5,8)            -79.1604         estimate D2E/DX2                !
 ! D18   D(4,1,5,10)           128.818          estimate D2E/DX2                !
 ! D19   D(1,2,10,5)            11.1739         estimate D2E/DX2                !
 ! D20   D(1,2,10,11)         -149.7559         estimate D2E/DX2                !
 ! D21   D(7,2,10,5)           147.6046         estimate D2E/DX2                !
 ! D22   D(7,2,10,11)          -13.3252         estimate D2E/DX2                !
 ! D23   D(1,5,10,2)           -11.2464         estimate D2E/DX2                !
 ! D24   D(1,5,10,11)           49.6095         estimate D2E/DX2                !
 ! D25   D(8,5,10,2)          -164.959          estimate D2E/DX2                !
 ! D26   D(8,5,10,11)         -104.1031         estimate D2E/DX2                !
 --------------------------------------------------------------------------------
 Trust Radius=3.00D-01 FncErr=1.00D-07 GrdErr=1.00D-06
 Number of steps in this run=  67 maximum allowed number of steps= 100.
 GradGradGradGradGradGradGradGradGradGradGradGradGradGradGradGradGradGrad

 Leave Link  103 at Fri Feb 15 08:58:06 2008, MaxMem=  104857600 cpu:       0.9
 (Enter /usr/local/g03/l202.exe)
                          Input orientation:                          
 ---------------------------------------------------------------------
 Center     Atomic     Atomic              Coordinates (Angstroms)
 Number     Number      Type              X           Y           Z
 ---------------------------------------------------------------------
    1         13             0        0.000000    0.000000    0.000000
    2          8             0        0.000000    0.000000    1.842599
    3          8             0        1.675945    0.000000   -0.515496
    4          8             0       -1.127404   -1.085048   -0.773904
    5          8             0       -0.779058    1.656014    0.125284
    6          1             0       -0.838509   -1.909518   -1.169685
    7          1             0        0.686214   -0.421245    2.367578
    8          1             0       -0.876587    2.333395   -0.547009
    9          1             0        1.929487   -0.394603   -1.352603
   10         45             0       -0.465411    2.026067    2.159112
   11          6             0        0.583266    2.177930    3.978056
   12          8             0        1.207638    2.268348    5.061036
 ---------------------------------------------------------------------
                    Distance matrix (angstroms):
                    1          2          3          4          5
     1  Al   0.000000
     2  O    1.842599   0.000000
     3  O    1.753433   2.892993   0.000000
     4  O    1.745650   3.048681   3.017096   0.000000
     5  O    1.834397   2.509679   3.029855   2.905737   0.000000
     6  H    2.391133   3.663770   3.224391   0.959090   3.793876
     7  H    2.500752   0.961217   3.077195   3.687648   3.389677
     8  H    2.551932   3.453023   3.458489   3.435134   0.959341
     9  H    2.389177   3.753392   0.959554   3.186878   3.704781
    10  Rh   2.997219   2.102792   3.980438   4.326645   2.090878
    11  C    4.572582   3.105440   5.111687   6.012865   4.119730
    12  O    5.676079   4.118510   6.038412   7.123497   5.355704
                    6          7          8          9         10
     6  H    0.000000
     7  H    4.129403   0.000000
     8  H    4.288530   4.304092   0.000000
     9  H    3.160732   3.922523   3.995624   0.000000
    10  Rh   5.168068   2.712754   2.754380   4.891557   0.000000
    11  C    6.725170   3.059403   4.757264   6.070105   2.105076
    12  O    7.775806   3.841941   5.983176   6.981916   3.358415
                   11         12
    11  C    0.000000
    12  O    1.253340   0.000000
 Stoichiometry    CH4AlO5Rh
 Framework group  C1[X(CH4AlO5Rh)]
 Deg. of freedom    30
 Full point group                 C1
 Largest Abelian subgroup         C1      NOp   1
 Largest concise Abelian subgroup C1      NOp   1
                         Standard orientation:                         
 ------------------x---------------------------------------------------
 Center     Atomic     Atomic              Coordinates (Angstroms)
 Number     Number      Type              X           Y           Z
 ------------------y---------------------------------------------------
    1         13             0       -1.915047    0.285030   -0.024235
    2          8             0       -0.353229    0.754759   -0.881704
    3          8             0       -2.231884    1.517816    1.181741
    4          8             0       -3.222276   -0.263611   -1.042783
    5          8             0       -0.994040   -1.181537    0.580694
    6          1             0       -3.970507    0.300985   -1.245852
    7          1             0       -0.080539    1.667030   -1.013386
    8          1             0       -1.214745   -1.785870    1.292316
    9          1             0       -3.130721    1.716760    1.452401
   10         45             0        0.946899   -0.600903    0.063593
   11          6             0        2.643660    0.637142   -0.076362
   12          8             0        3.653894    1.374261   -0.159689
 ---------------------------------------------------------------------
 Rotational constants (GHZ):      2.3248900      0.5996682      0.5431590
 Leave Link  202 at Fri Feb 15 08:58:07 2008, MaxMem=  104857600 cpu:       0.1
 (Enter /usr/local/g03/l301.exe)
 General basis read from cards:  (5D, 7F)
 Centers:   6  7  8  9 11  2  3  4  5 12  1
 AUG-cc-pVDZ
 *****
 Centers:  10
 s 8 1.0
     Exponent=  1.8466600000D+02 Coefficients=  6.9200000000D-04
     Exponent=  2.1997400000D+01 Coefficients= -3.8393000000D-02
     Exponent=  1.3761600000D+01 Coefficients=  1.7601900000D-01
     Exponent=  5.0872000000D+00 Coefficients= -6.2992500000D-01
     Exponent=  1.2294000000D+00 Coefficients=  8.4954400000D-01
     Exponent=  5.5681400000D-01 Coefficients=  4.4572900000D-01
     Exponent=  1.1406700000D-01 Coefficients=  1.8204000000D-02
     Exponent=  4.1415000000D-02 Coefficients= -2.3480000000D-03
 s 8 1.0
     Exponent=  1.8466600000D+02 Coefficients= -1.7800000000D-04
     Exponent=  2.1997400000D+01 Coefficients=  9.4560000000D-03
     Exponent=  1.3761600000D+01 Coefficients= -4.9472000000D-02
     Exponent=  5.0872000000D+00 Coefficients=  2.0186700000D-01
     Exponent=  1.2294000000D+00 Coefficients= -3.6980900000D-01
     Exponent=  5.5681400000D-01 Coefficients= -2.6533100000D-01
     Exponent=  1.1406700000D-01 Coefficients=  5.8915400000D-01
     Exponent=  4.1415000000D-02 Coefficients=  5.8632500000D-01
 s 8 1.0
     Exponent=  1.8466600000D+02 Coefficients=  8.3700000000D-04
     Exponent=  2.1997400000D+01 Coefficients= -4.0286000000D-02
     Exponent=  1.3761600000D+01 Coefficients=  1.5064900000D-01
     Exponent=  5.0872000000D+00 Coefficients= -5.2685100000D-01
     Exponent=  1.2294000000D+00 Coefficients=  1.5723820000D+00
     Exponent=  5.5681400000D-01 Coefficients= -8.8764300000D-01
     Exponent=  1.1406700000D-01 Coefficients= -1.4709450000D+00
     Exponent=  4.1415000000D-02 Coefficients=  1.5168800000D+00
 s 1 1.0
     Exponent=  4.1415000000D-02 Coefficients=  1.0000000000D+00
 p 7 1.0
     Exponent=  1.3698500000D+01 Coefficients=  3.1821000000D-02
     Exponent=  6.6247600000D+00 Coefficients= -1.9302800000D-01
     Exponent=  1.6961300000D+00 Coefficients=  5.0624200000D-01
     Exponent=  7.9735100000D-01 Coefficients=  4.9490200000D-01
     Exponent=  3.5203400000D-01 Coefficients=  1.4403000000D-01
     Exponent=  1.2334200000D-01 Coefficients=  5.6080000000D-03
     Exponent=  4.3130000000D-02 Coefficients=  4.3600000000D-04
 p 7 1.0
     Exponent=  1.3698500000D+01 Coefficients= -8.5830000000D-03
     Exponent=  6.6247600000D+00 Coefficients=  5.6811000000D-02
     Exponent=  1.6961300000D+00 Coefficients= -1.8017200000D-01
     Exponent=  7.9735100000D-01 Coefficients= -2.0341100000D-01
     Exponent=  3.5203400000D-01 Coefficients=  8.4818000000D-02
     Exponent=  1.2334200000D-01 Coefficients=  6.0105700000D-01
     Exponent=  4.3130000000D-02 Coefficients=  4.6540500000D-01
 p 7 1.0
     Exponent=  1.3698500000D+01 Coefficients= -1.5164000000D-02
     Exponent=  6.6247600000D+00 Coefficients=  1.0112500000D-01
     Exponent=  1.6961300000D+00 Coefficients= -3.4564100000D-01
     Exponent=  7.9735100000D-01 Coefficients= -3.4548500000D-01
     Exponent=  3.5203400000D-01 Coefficients=  4.2210200000D-01
     Exponent=  1.2334200000D-01 Coefficients=  7.3047900000D-01
     Exponent=  4.3130000000D-02 Coefficients=  8.2894000000D-02
 p 1 1.0
     Exponent=  4.3130000000D-02 Coefficients=  1.0000000000D+00
 d 6 1.0
     Exponent=  1.8737000000D+01 Coefficients=  6.4810000000D-03
     Exponent=  1.1704600000D+01 Coefficients= -1.3942000000D-02
     Exponent=  2.2555800000D+00 Coefficients=  2.5068200000D-01
     Exponent=  9.4941100000D-01 Coefficients=  4.5111100000D-01
     Exponent=  3.6616400000D-01 Coefficients=  3.8399900000D-01
     Exponent=  1.2397700000D-01 Coefficients=  1.5920800000D-01
 d 6 1.0
     Exponent=  1.8737000000D+01 Coefficients= -7.5900000000D-03
     Exponent=  1.1704600000D+01 Coefficients=  1.6294000000D-02
     Exponent=  2.2555800000D+00 Coefficients= -3.3477300000D-01
     Exponent=  9.4941100000D-01 Coefficients= -4.4639600000D-01
     Exponent=  3.6616400000D-01 Coefficients=  3.2996700000D-01
     Exponent=  1.2397700000D-01 Coefficients=  7.0816700000D-01
 d 1 1.0
     Exponent=  1.2397700000D-01 Coefficients=  1.0000000000D+00
 f 1 1.0
     Exponent=  9.9360000000D-01 Coefficients=  1.0000000000D+00
 *****
 Centers:  10
 s 1 1.0
     Exponent=  1.5000000000D-02 Coefficients=  1.0000000000D+00
 p 1 1.0
     Exponent=  1.5100000000D-02 Coefficients=  1.0000000000D+00
 d 1 1.0
     Exponent=  4.2000000000D-02 Coefficients=  1.0000000000D+00
 f 1 1.0
     Exponent=  3.2220000000D-01 Coefficients=  1.0000000000D+00
 *****
 ===================================================================================================================================
 Pseudopotential Parameters 
 ===================================================================================================================================
  Center     Atomic      Valence      Angular      Power                                                       Coordinates
  Number     Number     Electrons     Momentum     of R      Exponent        Coefficient                X           Y           Z
 ===================================================================================================================================
    1         13                                                                                   -3.618914  0.538628 -0.045798
                                   No pseudopotential on this center.
    2          8                                                                                   -0.667506  1.426287 -1.666179
                                   No pseudopotential on this center.
    3          8                                                                                   -4.217649  2.868257  2.233167
                                   No pseudopotential on this center.
    4          8                                                                                   -6.089220 -0.498152 -1.970574
                                   No pseudopotential on this center.
    5          8                                                                                   -1.878464 -2.232781  1.097354
                                   No pseudopotential on this center.
    6          1                                                                                   -7.503170  0.568779 -2.354319
                                   No pseudopotential on this center.
    7          1                                                                                   -0.152198  3.150230 -1.915022
                                   No pseudopotential on this center.
    8          1                                                                                   -2.295535 -3.374806  2.442124
                                   No pseudopotential on this center.
    9          1                                                                                   -5.916205  3.244206  2.744640
                                   No pseudopotential on this center.
   10         45           17                                                                       1.789379 -1.135543  0.120173
                                      G and up 
                                                     2        1.0000000        0.00000000
                                      S - G
                                                     2       12.1948160      225.31205400
                                                     2        5.4051370       32.44158200
                                      P - G
                                                     2       11.2807550       52.87282600
                                                     2       10.9272480      105.74552600
                                                     2        5.0901170        8.61934400
                                                     2        4.8518320       16.97345900
                                      D - G
                                                     2        9.1363370       25.10850100
                                                     2        8.9648080       37.69573100
                                                     2        3.6436120        4.20258400
                                                     2        3.6360070        6.29279000
                                      F - G
                                                     2        8.6162280       -9.67356800
                                                     2        8.6294350      -12.89984700
   11          6                                                                                    4.995794  1.204024 -0.144303
                                   No pseudopotential on this center.
   12          8                                                                                    6.904860  2.596976 -0.301768
                                   No pseudopotential on this center.
 ===================================================================================================================================
 There are   255 symmetry adapted basis functions of A   symmetry.
 Integral buffers will be    131072 words long.
 Raffenetti 2 integral format.
 Two-electron integral symmetry is turned on.
   255 basis functions,   584 primitive gaussians,   279 cartesian basis functions
    40 alpha electrons       40 beta electrons
       nuclear repulsion energy       530.1525240320 Hartrees.
 IExCor= 402 DFT=T Ex=B+HF Corr=LYP ExCW=0 ScaHFX=  0.200000
 ScaDFX=  0.800000  0.720000  1.000000  0.810000
 IRadAn=      0 IRanWt=     -1 IRanGd=            0 ICorTp=0
 NAtoms=   12 NActive=   12 NUniq=   12 SFac= 7.50D-01 NAtFMM=   80 NAOKFM=F Big=F
 Leave Link  301 at Fri Feb 15 08:58:09 2008, MaxMem=  104857600 cpu:       0.8
 (Enter /usr/local/g03/l302.exe)
 NPDir=0 NMtPBC=     1 NCelOv=     1 NCel=       1 NClECP=     1 NCelD=      1
         NCelK=      1 NCelE2=     1 NClLst=     1 CellRange=     0.0.
 One-electron integrals computed using PRISM.
   1 Symmetry operations used in ECPInt.
 ECPInt:  NShTT=    5151 NPrTT=   38823 LenC2=    5039 LenP2D=   27572.
 LDataN:  DoStor=F MaxTD1= 7 Len=  274
 LDataN:  DoStor=T MaxTD1= 7 Len=  274
 NBasis=   255 RedAO= T  NBF=   255
 NBsUse=   255 1.00D-06 NBFU=   255
 Precomputing XC quadrature grid using
 IXCGrd= 2 IRadAn=           0 IRanWt=          -1 IRanGd=           0.
 Defaulting to unpruned grid for atomic number  45.
 NRdTot=     789 NPtTot=      110958 NUsed=      116530 NTot=      116562
 NSgBfM=   279   279   279   279.
 Leave Link  302 at Fri Feb 15 08:58:13 2008, MaxMem=  104857600 cpu:       2.6
 (Enter /usr/local/g03/l303.exe)
 DipDrv:  MaxL=1.
 Leave Link  303 at Fri Feb 15 08:58:14 2008, MaxMem=  104857600 cpu:       0.1
 (Enter /usr/local/g03/l401.exe)
 Harris functional with IExCor=  402 diagonalized for initial guess.
 ExpMin= 1.50D-02 ExpMax= 6.42D+04 ExpMxC= 2.19D+03 IAcc=3 IRadAn=         5 AccDes= 0.00D+00
 HarFok:  IExCor= 402 AccDes= 0.00D+00 IRadAn=         5 IDoV=1
 ScaDFX=  1.000000  1.000000  1.000000  1.000000
 Defaulting to unpruned grid for atomic number  45.
 Defaulting to unpruned grid for atomic number  45.
 Harris En=  909.500840794803    
 Initial guess orbital symmetries:
       Occupied  (A) (A) (A) (A) (A) (A) (A) (A) (A) (A) (A) (A)
                 (A) (A) (A) (A) (A) (A) (A) (A) (A) (A) (A) (A)
                 (A) (A) (A) (A) (A) (A) (A) (A) (A) (A) (A) (A)
                 (A) (A) (A) (A)
       Virtual   (A) (A) (A) (A) (A) (A) (A) (A) (A) (A) (A) (A)
                 (A) (A) (A) (A) (A) (A) (A) (A) (A) (A) (A) (A)
                 (A) (A) (A) (A) (A) (A) (A) (A) (A) (A) (A) (A)
                 (A) (A) (A) (A) (A) (A) (A) (A) (A) (A) (A) (A)
                 (A) (A) (A) (A) (A) (A) (A) (A) (A) (A) (A) (A)
                 (A) (A) (A) (A) (A) (A) (A) (A) (A) (A) (A) (A)
                 (A) (A) (A) (A) (A) (A) (A) (A) (A) (A) (A) (A)
                 (A) (A) (A) (A) (A) (A) (A) (A) (A) (A) (A) (A)
                 (A) (A) (A) (A) (A) (A) (A) (A) (A) (A) (A) (A)
                 (A) (A) (A) (A) (A) (A) (A) (A) (A) (A) (A) (A)
                 (A) (A) (A) (A) (A) (A) (A) (A) (A) (A) (A) (A)
                 (A) (A) (A) (A) (A) (A) (A) (A) (A) (A) (A) (A)
                 (A) (A) (A) (A) (A) (A) (A) (A) (A) (A) (A) (A)
                 (A) (A) (A) (A) (A) (A) (A) (A) (A) (A) (A) (A)
                 (A) (A) (A) (A) (A) (A) (A) (A) (A) (A) (A) (A)
                 (A) (A) (A) (A) (A) (A) (A) (A) (A) (A) (A) (A)
                 (A) (A) (A) (A) (A) (A) (A) (A) (A) (A) (A) (A)
                 (A) (A) (A) (A) (A) (A) (A) (A) (A) (A) (A)
 The electronic state of the initial guess is 1-A.
 Leave Link  401 at Fri Feb 15 08:58:30 2008, MaxMem=  104857600 cpu:      14.6
 (Enter /usr/local/g03/l502.exe)
 Closed shell SCF:
 Requested convergence on RMS density matrix=1.00D-08 within 128 cycles.
 Requested convergence on MAX density matrix=1.00D-06.
 Requested convergence on             energy=1.00D-06.
 No special actions if energy rises.
 Using DIIS extrapolation, IDIIS=  1040.
 Integral symmetry usage will be decided dynamically.
       116529 words used for storage of precomputed grid.
 IEnd=    409390 IEndB=    409390 NGot= 104857600 MDV= 104542971
 LenX= 104542971
 Fock matrices will be formed incrementally for  20 cycles.

 Cycle   1  Pass 1  IDiag  1:
 Petite list used in FoFDir.
 MinBra= 0 MaxBra= 3 Meth= 1.
 IRaf=       0 NMat=   1 IRICut=       1 DoRegI=T DoRafI=F ISym2E= 1 JSym2E=1.
 Defaulting to unpruned grid for atomic number  45.
 Defaulting to unpruned grid for atomic number  45.
 E= -768.853434398841    
 DIIS: error= 1.54D-01 at cycle   1 NSaved=   1.
 NSaved= 1 IEnMin= 1 EnMin= -768.853434398841     IErMin= 1 ErrMin= 1.54D-01
 ErrMax= 1.54D-01 EMaxC= 1.00D-01 BMatC= 2.52D+00 BMatP= 2.52D+00
 IDIUse=3 WtCom= 0.00D+00 WtEn= 1.00D+00
 Coeff-Com:  0.100D+01
 Coeff-En:   0.100D+01
 Coeff:      0.100D+01
 Gap=     0.075 Goal=   None    Shift=    0.000
 GapD=    0.075 DampG=0.500 DampE=0.125 DampFc=0.1250 IDamp=-1.
 Damping current iteration by 1.25D-01
 RMSDP=1.95D-02 MaxDP=7.39D-01              OVMax= 8.09D-01

 Cycle   2  Pass 1  IDiag  1:
 RMSU=  1.90D-03    CP:  9.45D-01
 E= -769.001396604481     Delta-E=       -0.147962205640 Rises=F Damp=T
 DIIS: error= 1.35D-01 at cycle   2 NSaved=   2.
 NSaved= 2 IEnMin= 2 EnMin= -769.001396604481     IErMin= 2 ErrMin= 1.35D-01
 ErrMax= 1.35D-01 EMaxC= 1.00D-01 BMatC= 1.53D+00 BMatP= 2.52D+00
 IDIUse=3 WtCom= 0.00D+00 WtEn= 1.00D+00
 Coeff-Com: -0.176D+01 0.276D+01
 Coeff-En:   0.000D+00 0.100D+01
 Coeff:      0.000D+00 0.100D+01
 Gap=     0.027 Goal=   None    Shift=    0.000
 RMSDP=1.51D-02 MaxDP=6.96D-01 DE=-1.48D-01 OVMax= 7.12D-01

 Cycle   3  Pass 1  IDiag  1:
 RMSU=  9.44D-03    CP:  6.19D-01  3.00D+00
 E= -768.843201847978     Delta-E=        0.158194756503 Rises=F Damp=F
 DIIS: error= 3.25D-02 at cycle   3 NSaved=   3.
 NSaved= 3 IEnMin= 2 EnMin= -769.001396604481     IErMin= 3 ErrMin= 3.25D-02
 ErrMax= 3.25D-02 EMaxC= 1.00D-01 BMatC= 9.64D-01 BMatP= 1.53D+00
 IDIUse=3 WtCom= 6.75D-01 WtEn= 3.25D-01
 EnCoef did   100 forward-backward iterations
 Coeff-Com: -0.139D+00 0.584D+00 0.555D+00
 Coeff-En:   0.488D+00 0.190D-01 0.493D+00
 Coeff:      0.646D-01 0.401D+00 0.535D+00
 Gap=     0.239 Goal=   None    Shift=    0.000
 RMSDP=5.66D-03 MaxDP=1.89D-01 DE= 1.58D-01 OVMax= 2.82D-01

 Cycle   4  Pass 1  IDiag  1:
 RMSU=  5.26D-03    CP:  6.24D-01  3.00D+00  7.79D-01
 E= -769.203926856213     Delta-E=       -0.360725008235 Rises=F Damp=F
 DIIS: error= 2.88D-02 at cycle   4 NSaved=   4.
 NSaved= 4 IEnMin= 4 EnMin= -769.203926856213     IErMin= 4 ErrMin= 2.88D-02
 ErrMax= 2.88D-02 EMaxC= 1.00D-01 BMatC= 5.10D-01 BMatP= 9.64D-01
 IDIUse=3 WtCom= 7.12D-01 WtEn= 2.88D-01
 EnCoef did     4 forward-backward iterations
 Coeff-Com:  0.585D+00-0.620D+00 0.477D+00 0.558D+00
 Coeff-En:   0.202D-01 0.000D+00 0.371D+00 0.609D+00
 Coeff:      0.422D+00-0.441D+00 0.446D+00 0.573D+00
 Gap=     0.087 Goal=   None    Shift=    0.000
 RMSDP=2.84D-03 MaxDP=1.32D-01 DE=-3.61D-01 OVMax= 1.83D-01

 Cycle   5  Pass 1  IDiag  1:
 RMSU=  2.20D-03    CP:  6.39D-01  3.00D+00  8.43D-01  6.88D-01
 E= -769.558604897932     Delta-E=       -0.354678041719 Rises=F Damp=F
 DIIS: error= 1.05D-02 at cycle   5 NSaved=   5.
 NSaved= 5 IEnMin= 5 EnMin= -769.558604897932     IErMin= 5 ErrMin= 1.05D-02
 ErrMax= 1.05D-02 EMaxC= 1.00D-01 BMatC= 5.55D-02 BMatP= 5.10D-01
 IDIUse=3 WtCom= 8.95D-01 WtEn= 1.05D-01
 Coeff-Com:  0.274D+00-0.306D+00 0.247D+00 0.353D+00 0.432D+00
 Coeff-En:   0.000D+00 0.000D+00 0.000D+00 0.686D-01 0.931D+00
 Coeff:      0.245D+00-0.274D+00 0.221D+00 0.323D+00 0.485D+00
 Gap=     0.087 Goal=   None    Shift=    0.000
 RMSDP=1.19D-03 MaxDP=5.92D-02 DE=-3.55D-01 OVMax= 1.02D-01

 Cycle   6  Pass 1  IDiag  1:
 RMSU=  7.35D-04    CP:  6.30D-01  3.00D+00  8.55D-01  6.97D-01  5.94D-01
 E= -769.581949916755     Delta-E=       -0.023345018823 Rises=F Damp=F
 DIIS: error= 7.37D-03 at cycle   6 NSaved=   6.
 NSaved= 6 IEnMin= 6 EnMin= -769.581949916755     IErMin= 6 ErrMin= 7.37D-03
 ErrMax= 7.37D-03 EMaxC= 1.00D-01 BMatC= 2.17D-02 BMatP= 5.55D-02
 IDIUse=3 WtCom= 9.26D-01 WtEn= 7.37D-02
 Coeff-Com:  0.106D+00-0.125D+00 0.687D-01 0.872D-01 0.361D+00 0.502D+00
 Coeff-En:   0.000D+00 0.000D+00 0.000D+00 0.000D+00 0.349D+00 0.651D+00
 Coeff:      0.980D-01-0.116D+00 0.637D-01 0.807D-01 0.360D+00 0.513D+00
 Gap=     0.090 Goal=   None    Shift=    0.000
 RMSDP=5.45D-04 MaxDP=3.13D-02 DE=-2.33D-02 OVMax= 4.29D-02

 Cycle   7  Pass 1  IDiag  1:
 RMSU=  3.20D-04    CP:  6.32D-01  3.00D+00  8.65D-01  6.66D-01  6.21D-01
                    CP:  4.71D-01
 E= -769.599280443598     Delta-E=       -0.017330526844 Rises=F Damp=F
 DIIS: error= 1.07D-03 at cycle   7 NSaved=   7.
 NSaved= 7 IEnMin= 7 EnMin= -769.599280443598     IErMin= 7 ErrMin= 1.07D-03
 ErrMax= 1.07D-03 EMaxC= 1.00D-01 BMatC= 8.30D-04 BMatP= 2.17D-02
 IDIUse=3 WtCom= 9.89D-01 WtEn= 1.07D-02
 Coeff-Com:  0.146D-01-0.175D-01 0.882D-02 0.911D-02 0.134D+00 0.269D+00
 Coeff-Com:  0.582D+00
 Coeff-En:   0.000D+00 0.000D+00 0.000D+00 0.000D+00 0.000D+00 0.000D+00
 Coeff-En:   0.100D+01
 Coeff:      0.145D-01-0.174D-01 0.872D-02 0.901D-02 0.132D+00 0.267D+00
 Coeff:      0.586D+00
 Gap=     0.091 Goal=   None    Shift=    0.000
 RMSDP=1.47D-04 MaxDP=5.14D-03 DE=-1.73D-02 OVMax= 8.34D-03

 Cycle   8  Pass 1  IDiag  1:
 RMSU=  1.04D-04    CP:  6.33D-01  3.00D+00  8.64D-01  6.60D-01  6.50D-01
                    CP:  4.95D-01  7.81D-01
 E= -769.599860503955     Delta-E=       -0.000580060356 Rises=F Damp=F
 DIIS: error= 4.73D-04 at cycle   8 NSaved=   8.
 NSaved= 8 IEnMin= 8 EnMin= -769.599860503955     IErMin= 8 ErrMin= 4.73D-04
 ErrMax= 4.73D-04 EMaxC= 1.00D-01 BMatC= 1.60D-04 BMatP= 8.30D-04
 IDIUse=3 WtCom= 9.95D-01 WtEn= 4.73D-03
 Coeff-Com: -0.753D-02 0.852D-02-0.121D-02 0.131D-02 0.449D-01 0.112D+00
 Coeff-Com:  0.340D+00 0.502D+00
 Coeff-En:   0.000D+00 0.000D+00 0.000D+00 0.000D+00 0.000D+00 0.000D+00
 Coeff-En:   0.945D-02 0.991D+00
 Coeff:     -0.750D-02 0.848D-02-0.120D-02 0.130D-02 0.447D-01 0.112D+00
 Coeff:      0.338D+00 0.504D+00
 Gap=     0.090 Goal=   None    Shift=    0.000
 RMSDP=5.08D-05 MaxDP=2.21D-03 DE=-5.80D-04 OVMax= 3.91D-03

 Cycle   9  Pass 1  IDiag  1:
 RMSU=  3.74D-05    CP:  6.32D-01  3.00D+00  8.64D-01  6.63D-01  6.50D-01
                    CP:  5.11D-01  8.11D-01  7.40D-01
 E= -769.599963218755     Delta-E=       -0.000102714801 Rises=F Damp=F
 DIIS: error= 3.08D-04 at cycle   9 NSaved=   9.
 NSaved= 9 IEnMin= 9 EnMin= -769.599963218755     IErMin= 9 ErrMin= 3.08D-04
 ErrMax= 3.08D-04 EMaxC= 1.00D-01 BMatC= 3.63D-05 BMatP= 1.60D-04
 IDIUse=3 WtCom= 9.97D-01 WtEn= 3.08D-03
 Coeff-Com: -0.111D-01 0.127D-01-0.217D-02 0.157D-02 0.103D-01 0.354D-01
 Coeff-Com:  0.129D+00 0.314D+00 0.510D+00
 Coeff-En:   0.000D+00 0.000D+00 0.000D+00 0.000D+00 0.000D+00 0.000D+00
 Coeff-En:   0.000D+00 0.000D+00 0.100D+01
 Coeff:     -0.111D-01 0.127D-01-0.216D-02 0.156D-02 0.103D-01 0.353D-01
 Coeff:      0.128D+00 0.313D+00 0.512D+00
 Gap=     0.090 Goal=   None    Shift=    0.000
 RMSDP=1.91D-05 MaxDP=8.76D-04 DE=-1.03D-04 OVMax= 8.87D-04

 Cycle  10  Pass 1  IDiag  1:
 RMSU=  1.51D-05    CP:  6.32D-01  3.00D+00  8.63D-01  6.64D-01  6.48D-01
                    CP:  5.14D-01  8.00D-01  7.62D-01  8.00D-01
 E= -769.599989049336     Delta-E=       -0.000025830580 Rises=F Damp=F
 DIIS: error= 1.51D-04 at cycle  10 NSaved=  10.
 NSaved=10 IEnMin=10 EnMin= -769.599989049336     IErMin=10 ErrMin= 1.51D-04
 ErrMax= 1.51D-04 EMaxC= 1.00D-01 BMatC= 7.60D-06 BMatP= 3.63D-05
 IDIUse=3 WtCom= 9.98D-01 WtEn= 1.51D-03
 Coeff-Com: -0.774D-02 0.886D-02-0.100D-02 0.134D-02 0.198D-02 0.596D-02
 Coeff-Com:  0.173D-01 0.592D-01 0.112D+00 0.802D+00
 Coeff-En:   0.000D+00 0.000D+00 0.000D+00 0.000D+00 0.000D+00 0.000D+00
 Coeff-En:   0.000D+00 0.000D+00 0.000D+00 0.100D+01
 Coeff:     -0.773D-02 0.885D-02-0.100D-02 0.133D-02 0.198D-02 0.595D-02
 Coeff:      0.173D-01 0.592D-01 0.112D+00 0.802D+00
 Gap=     0.090 Goal=   None    Shift=    0.000
 RMSDP=8.73D-06 MaxDP=6.94D-04 DE=-2.58D-05 OVMax= 8.96D-04

 Cycle  11  Pass 1  IDiag  1:
 RMSU=  5.77D-06    CP:  6.32D-01  3.00D+00  8.63D-01  6.64D-01  6.48D-01
                    CP:  5.14D-01  7.94D-01  7.93D-01  8.88D-01  1.27D+00
 E= -769.599994674281     Delta-E=       -0.000005624945 Rises=F Damp=F
 DIIS: error= 7.93D-05 at cycle  11 NSaved=  11.
 NSaved=11 IEnMin=11 EnMin= -769.599994674281     IErMin=11 ErrMin= 7.93D-05
 ErrMax= 7.93D-05 EMaxC= 1.00D-01 BMatC= 2.28D-06 BMatP= 7.60D-06
 IDIUse=1 WtCom= 1.00D+00 WtEn= 0.00D+00
 Coeff-Com: -0.271D-02 0.309D-02-0.251D-05 0.568D-03 0.738D-03-0.170D-02
 Coeff-Com: -0.140D-01-0.493D-01-0.108D+00 0.127D+00 0.104D+01
 Coeff:     -0.271D-02 0.309D-02-0.251D-05 0.568D-03 0.738D-03-0.170D-02
 Coeff:     -0.140D-01-0.493D-01-0.108D+00 0.127D+00 0.104D+01
 Gap=     0.090 Goal=   None    Shift=    0.000
 RMSDP=7.52D-06 MaxDP=6.34D-04 DE=-5.62D-06 OVMax= 7.87D-04

 Cycle  12  Pass 1  IDiag  1:
 RMSU=  3.08D-06    CP:  6.32D-01  3.00D+00  8.63D-01  6.64D-01  6.48D-01
                    CP:  5.15D-01  7.90D-01  8.06D-01  9.46D-01  1.60D+00
                    CP:  1.62D+00
 E= -769.599996759974     Delta-E=       -0.000002085693 Rises=F Damp=F
 DIIS: error= 3.10D-05 at cycle  12 NSaved=  12.
 NSaved=12 IEnMin=12 EnMin= -769.599996759974     IErMin=12 ErrMin= 3.10D-05
 ErrMax= 3.10D-05 EMaxC= 1.00D-01 BMatC= 3.91D-07 BMatP= 2.28D-06
 IDIUse=1 WtCom= 1.00D+00 WtEn= 0.00D+00
 Coeff-Com: -0.624D-03 0.709D-03 0.160D-03 0.154D-03 0.438D-03-0.130D-02
 Coeff-Com: -0.907D-02-0.418D-01-0.935D-01-0.143D+00 0.660D+00 0.628D+00
 Coeff:     -0.624D-03 0.709D-03 0.160D-03 0.154D-03 0.438D-03-0.130D-02
 Coeff:     -0.907D-02-0.418D-01-0.935D-01-0.143D+00 0.660D+00 0.628D+00
 Gap=     0.090 Goal=   None    Shift=    0.000
 RMSDP=3.62D-06 MaxDP=2.98D-04 DE=-2.09D-06 OVMax= 3.83D-04

 Cycle  13  Pass 1  IDiag  1:
 RMSU=  1.77D-06    CP:  6.32D-01  3.00D+00  8.63D-01  6.64D-01  6.48D-01
                    CP:  5.16D-01  7.88D-01  8.08D-01  9.80D-01  1.73D+00
                    CP:  1.95D+00  1.12D+00
 E= -769.599997157797     Delta-E=       -0.000000397823 Rises=F Damp=F
 DIIS: error= 8.86D-06 at cycle  13 NSaved=  13.
 NSaved=13 IEnMin=13 EnMin= -769.599997157797     IErMin=13 ErrMin= 8.86D-06
 ErrMax= 8.86D-06 EMaxC= 1.00D-01 BMatC= 3.87D-08 BMatP= 3.91D-07
 IDIUse=1 WtCom= 1.00D+00 WtEn= 0.00D+00
 Coeff-Com:  0.203D-04-0.239D-04 0.623D-04 0.404D-05 0.411D-04-0.216D-03
 Coeff-Com: -0.123D-02-0.114D-01-0.268D-01-0.103D+00 0.113D+00 0.361D+00
 Coeff-Com:  0.668D+00
 Coeff:      0.203D-04-0.239D-04 0.623D-04 0.404D-05 0.411D-04-0.216D-03
 Coeff:     -0.123D-02-0.114D-01-0.268D-01-0.103D+00 0.113D+00 0.361D+00
 Coeff:      0.668D+00
 Gap=     0.090 Goal=   None    Shift=    0.000
 RMSDP=1.67D-06 MaxDP=1.34D-04 DE=-3.98D-07 OVMax= 1.52D-04

 Cycle  14  Pass 1  IDiag  1:
 RMSU=  7.17D-07    CP:  6.32D-01  3.00D+00  8.63D-01  6.64D-01  6.48D-01
                    CP:  5.16D-01  7.88D-01  8.07D-01  9.92D-01  1.78D+00
                    CP:  2.08D+00  1.34D+00  1.23D+00
 E= -769.599997205376     Delta-E=       -0.000000047579 Rises=F Damp=F
 DIIS: error= 1.18D-06 at cycle  14 NSaved=  14.
 NSaved=14 IEnMin=14 EnMin= -769.599997205376     IErMin=14 ErrMin= 1.18D-06
 ErrMax= 1.18D-06 EMaxC= 1.00D-01 BMatC= 1.16D-09 BMatP= 3.87D-08
 IDIUse=1 WtCom= 1.00D+00 WtEn= 0.00D+00
 Coeff-Com:  0.149D-03-0.169D-03 0.271D-05-0.233D-04-0.905D-04 0.120D-03
 Coeff-Com:  0.101D-02 0.277D-02 0.465D-02-0.108D-01-0.726D-01 0.302D-01
 Coeff-Com:  0.213D+00 0.832D+00
 Coeff:      0.149D-03-0.169D-03 0.271D-05-0.233D-04-0.905D-04 0.120D-03
 Coeff:      0.101D-02 0.277D-02 0.465D-02-0.108D-01-0.726D-01 0.302D-01
 Coeff:      0.213D+00 0.832D+00
 Gap=     0.090 Goal=   None    Shift=    0.000
 RMSDP=7.62D-07 MaxDP=5.77D-05 DE=-4.76D-08 OVMax= 6.45D-05

 Cycle  15  Pass 1  IDiag  1:
 RMSU=  2.60D-07    CP:  6.32D-01  3.00D+00  8.63D-01  6.64D-01  6.48D-01
                    CP:  5.17D-01  7.88D-01  8.08D-01  9.96D-01  1.81D+00
                    CP:  2.14D+00  1.45D+00  1.41D+00  1.19D+00
 E= -769.599997209032     Delta-E=       -0.000000003656 Rises=F Damp=F
 DIIS: error= 1.89D-06 at cycle  15 NSaved=  15.
 NSaved=15 IEnMin=15 EnMin= -769.599997209032     IErMin=14 ErrMin= 1.18D-06
 ErrMax= 1.89D-06 EMaxC= 1.00D-01 BMatC= 1.06D-09 BMatP= 1.16D-09
 IDIUse=1 WtCom= 1.00D+00 WtEn= 0.00D+00
 Coeff-Com:  0.772D-04-0.878D-04-0.474D-05-0.148D-04-0.604D-04-0.115D-04
 Coeff-Com:  0.342D-03 0.251D-02 0.510D-02 0.147D-01-0.303D-01-0.443D-01
 Coeff-Com: -0.654D-01 0.122D+00 0.995D+00
 Coeff:      0.772D-04-0.878D-04-0.474D-05-0.148D-04-0.604D-04-0.115D-04
 Coeff:      0.342D-03 0.251D-02 0.510D-02 0.147D-01-0.303D-01-0.443D-01
 Coeff:     -0.654D-01 0.122D+00 0.995D+00
 Gap=     0.090 Goal=   None    Shift=    0.000
 RMSDP=3.68D-07 MaxDP=3.35D-05 DE=-3.66D-09 OVMax= 3.10D-05

 Cycle  16  Pass 1  IDiag  1:
 RMSU=  1.22D-07    CP:  6.32D-01  3.00D+00  8.63D-01  6.64D-01  6.48D-01
                    CP:  5.17D-01  7.89D-01  8.08D-01  9.97D-01  1.81D+00
                    CP:  2.15D+00  1.49D+00  1.50D+00  1.40D+00  1.48D+00
 E= -769.599997210642     Delta-E=       -0.000000001609 Rises=F Damp=F
 DIIS: error= 9.12D-07 at cycle  16 NSaved=  16.
 NSaved=16 IEnMin=16 EnMin= -769.599997210642     IErMin=16 ErrMin= 9.12D-07
 ErrMax= 9.12D-07 EMaxC= 1.00D-01 BMatC= 2.34D-10 BMatP= 1.06D-09
 IDIUse=1 WtCom= 1.00D+00 WtEn= 0.00D+00
 Coeff-Com:  0.154D-04-0.176D-04-0.151D-05-0.562D-05-0.178D-04-0.567D-04
 Coeff-Com: -0.854D-04 0.455D-03 0.118D-02 0.708D-02 0.267D-02-0.192D-01
 Coeff-Com: -0.597D-01-0.119D+00 0.277D+00 0.910D+00
 Coeff:      0.154D-04-0.176D-04-0.151D-05-0.562D-05-0.178D-04-0.567D-04
 Coeff:     -0.854D-04 0.455D-03 0.118D-02 0.708D-02 0.267D-02-0.192D-01
 Coeff:     -0.597D-01-0.119D+00 0.277D+00 0.910D+00
 Gap=     0.090 Goal=   None    Shift=    0.000
 RMSDP=1.77D-07 MaxDP=1.62D-05 DE=-1.61D-09 OVMax= 1.61D-05

 Cycle  17  Pass 1  IDiag  1:
 RMSU=  4.80D-08    CP:  6.32D-01  3.00D+00  8.63D-01  6.64D-01  6.48D-01
                    CP:  5.17D-01  7.89D-01  8.08D-01  9.98D-01  1.82D+00
                    CP:  2.16D+00  1.50D+00  1.54D+00  1.48D+00  1.81D+00
                    CP:  1.37D+00
 E= -769.599997211003     Delta-E=       -0.000000000361 Rises=F Damp=F
 DIIS: error= 1.30D-07 at cycle  17 NSaved=  17.
 NSaved=17 IEnMin=17 EnMin= -769.599997211003     IErMin=17 ErrMin= 1.30D-07
 ErrMax= 1.30D-07 EMaxC= 1.00D-01 BMatC= 9.91D-12 BMatP= 2.34D-10
 IDIUse=1 WtCom= 1.00D+00 WtEn= 0.00D+00
 Coeff-Com: -0.387D-05 0.438D-05 0.129D-05-0.879D-07 0.181D-05-0.292D-04
 Coeff-Com: -0.107D-03-0.293D-03-0.457D-03-0.115D-02 0.492D-02 0.288D-02
 Coeff-Com: -0.319D-02-0.473D-01-0.120D+00 0.279D+00 0.886D+00
 Coeff:     -0.387D-05 0.438D-05 0.129D-05-0.879D-07 0.181D-05-0.292D-04
 Coeff:     -0.107D-03-0.293D-03-0.457D-03-0.115D-02 0.492D-02 0.288D-02
 Coeff:     -0.319D-02-0.473D-01-0.120D+00 0.279D+00 0.886D+00
 Gap=     0.090 Goal=   None    Shift=    0.000
 RMSDP=7.74D-08 MaxDP=5.71D-06 DE=-3.61D-10 OVMax= 7.41D-06

 Cycle  18  Pass 1  IDiag  1:
 RMSU=  1.86D-08    CP:  6.32D-01  3.00D+00  8.63D-01  6.64D-01  6.48D-01
                    CP:  5.17D-01  7.89D-01  8.09D-01  9.99D-01  1.82D+00
                    CP:  2.17D+00  1.51D+00  1.54D+00  1.50D+00  1.93D+00
                    CP:  1.63D+00  1.20D+00
 E= -769.599997210991     Delta-E=        0.000000000012 Rises=F Damp=F
 DIIS: error= 7.71D-08 at cycle  18 NSaved=  18.
 NSaved=18 IEnMin=17 EnMin= -769.599997211003     IErMin=18 ErrMin= 7.71D-08
 ErrMax= 7.71D-08 EMaxC= 1.00D-01 BMatC= 4.92D-12 BMatP= 9.91D-12
 IDIUse=1 WtCom= 1.00D+00 WtEn= 0.00D+00
 Coeff-Com: -0.370D-05 0.420D-05 0.785D-06 0.375D-06 0.308D-05-0.825D-05
 Coeff-Com: -0.393D-04-0.173D-03-0.316D-03-0.168D-02 0.157D-02 0.386D-02
 Coeff-Com:  0.590D-02-0.997D-02-0.101D+00 0.494D-01 0.504D+00 0.549D+00
 Coeff:     -0.370D-05 0.420D-05 0.785D-06 0.375D-06 0.308D-05-0.825D-05
 Coeff:     -0.393D-04-0.173D-03-0.316D-03-0.168D-02 0.157D-02 0.386D-02
 Coeff:      0.590D-02-0.997D-02-0.101D+00 0.494D-01 0.504D+00 0.549D+00
 Gap=     0.090 Goal=   None    Shift=    0.000
 RMSDP=1.96D-08 MaxDP=1.29D-06 DE= 1.18D-11 OVMax= 2.00D-06

 Cycle  19  Pass 1  IDiag  1:
 RMSU=  8.65D-09    CP:  6.32D-01  3.00D+00  8.63D-01  6.64D-01  6.48D-01
                    CP:  5.17D-01  7.89D-01  8.09D-01  9.99D-01  1.82D+00
                    CP:  2.17D+00  1.51D+00  1.55D+00  1.51D+00  1.94D+00
                    CP:  1.69D+00  1.30D+00  1.14D+00
 E= -769.599997211022     Delta-E=       -0.000000000031 Rises=F Damp=F
 DIIS: error= 5.80D-08 at cycle  19 NSaved=  19.
 NSaved=19 IEnMin=19 EnMin= -769.599997211022     IErMin=19 ErrMin= 5.80D-08
 ErrMax= 5.80D-08 EMaxC= 1.00D-01 BMatC= 1.50D-12 BMatP= 4.92D-12
 IDIUse=1 WtCom= 1.00D+00 WtEn= 0.00D+00
 Coeff-Com: -0.161D-05 0.184D-05 0.104D-06 0.389D-06 0.161D-05 0.351D-05
 Coeff-Com:  0.811D-05-0.434D-05-0.378D-04-0.698D-03-0.653D-03 0.143D-02
 Coeff-Com:  0.395D-02 0.558D-02-0.275D-01-0.325D-01 0.825D-01 0.304D+00
 Coeff-Com:  0.664D+00
 Coeff:     -0.161D-05 0.184D-05 0.104D-06 0.389D-06 0.161D-05 0.351D-05
 Coeff:      0.811D-05-0.434D-05-0.378D-04-0.698D-03-0.653D-03 0.143D-02
 Coeff:      0.395D-02 0.558D-02-0.275D-01-0.325D-01 0.825D-01 0.304D+00
 Coeff:      0.664D+00
 Gap=     0.090 Goal=   None    Shift=    0.000
 RMSDP=9.74D-09 MaxDP=7.69D-07 DE=-3.09D-11 OVMax= 1.22D-06

 SCF Done:  E(RB+HF-LYP) =  -769.599997211     A.U. after   19 cycles
             Convg  =    0.9740D-08             -V/T =  2.1056
             S**2   =   0.0000
 KE= 6.960810971629D+02 PE=-2.856312143085D+03 EE= 8.604785246794D+02
 Leave Link  502 at Fri Feb 15 09:23:18 2008, MaxMem=  104857600 cpu:    1484.0
 (Enter /usr/local/g03/l601.exe)
 Copying SCF densities to generalized density rwf, ISCF=0 IROHF=0.

 **********************************************************************

            Population analysis using the SCF density.

 **********************************************************************

 Orbital symmetries:
       Occupied  (A) (A) (A) (A) (A) (A) (A) (A) (A) (A) (A) (A)
                 (A) (A) (A) (A) (A) (A) (A) (A) (A) (A) (A) (A)
                 (A) (A) (A) (A) (A) (A) (A) (A) (A) (A) (A) (A)
                 (A) (A) (A) (A)
       Virtual   (A) (A) (A) (A) (A) (A) (A) (A) (A) (A) (A) (A)
                 (A) (A) (A) (A) (A) (A) (A) (A) (A) (A) (A) (A)
                 (A) (A) (A) (A) (A) (A) (A) (A) (A) (A) (A) (A)
                 (A) (A) (A) (A) (A) (A) (A) (A) (A) (A) (A) (A)
                 (A) (A) (A) (A) (A) (A) (A) (A) (A) (A) (A) (A)
                 (A) (A) (A) (A) (A) (A) (A) (A) (A) (A) (A) (A)
                 (A) (A) (A) (A) (A) (A) (A) (A) (A) (A) (A) (A)
                 (A) (A) (A) (A) (A) (A) (A) (A) (A) (A) (A) (A)
                 (A) (A) (A) (A) (A) (A) (A) (A) (A) (A) (A) (A)
                 (A) (A) (A) (A) (A) (A) (A) (A) (A) (A) (A) (A)
                 (A) (A) (A) (A) (A) (A) (A) (A) (A) (A) (A) (A)
                 (A) (A) (A) (A) (A) (A) (A) (A) (A) (A) (A) (A)
                 (A) (A) (A) (A) (A) (A) (A) (A) (A) (A) (A) (A)
                 (A) (A) (A) (A) (A) (A) (A) (A) (A) (A) (A) (A)
                 (A) (A) (A) (A) (A) (A) (A) (A) (A) (A) (A) (A)
                 (A) (A) (A) (A) (A) (A) (A) (A) (A) (A) (A) (A)
                 (A) (A) (A) (A) (A) (A) (A) (A) (A) (A) (A) (A)
                 (A) (A) (A) (A) (A) (A) (A) (A) (A) (A) (A)
 The electronic state is 1-A.
 Alpha  occ. eigenvalues --  -56.07016 -19.25753 -19.18547 -19.17579 -19.11141
 Alpha  occ. eigenvalues --  -19.11013 -10.35692  -4.14621  -3.21304  -2.70085
 Alpha  occ. eigenvalues --   -2.69957  -2.69860  -2.00847  -2.00025  -1.95439
 Alpha  occ. eigenvalues --   -1.10651  -1.02294  -1.00722  -0.95395  -0.94602
 Alpha  occ. eigenvalues --   -0.59375  -0.57517  -0.50308  -0.48438  -0.46751
 Alpha  occ. eigenvalues --   -0.45997  -0.44617  -0.44419  -0.41550  -0.40138
 Alpha  occ. eigenvalues --   -0.37866  -0.35923  -0.34318  -0.30768  -0.29444
 Alpha  occ. eigenvalues --   -0.29377  -0.29013  -0.25183  -0.24800  -0.23195
 Alpha virt. eigenvalues --   -0.14193  -0.08786  -0.08024  -0.04136  -0.01710
 Alpha virt. eigenvalues --   -0.00158   0.00442   0.00986   0.01644   0.01873
 Alpha virt. eigenvalues --    0.02859   0.03564   0.03816   0.04178   0.05368
 Alpha virt. eigenvalues --    0.05867   0.06199   0.07096   0.08065   0.08725
 Alpha virt. eigenvalues --    0.09257   0.09815   0.10052   0.10522   0.11618
 Alpha virt. eigenvalues --    0.12035   0.12607   0.13102   0.13555   0.14049
 Alpha virt. eigenvalues --    0.14511   0.14858   0.15125   0.15362   0.16086
 Alpha virt. eigenvalues --    0.17684   0.17993   0.18917   0.19327   0.20582
 Alpha virt. eigenvalues --    0.20999   0.21855   0.22585   0.22922   0.23420
 Alpha virt. eigenvalues --    0.24322   0.24859   0.25080   0.25429   0.26445
 Alpha virt. eigenvalues --    0.27057   0.28271   0.29646   0.30745   0.31349
 Alpha virt. eigenvalues --    0.32321   0.32948   0.34099   0.34885   0.35036
 Alpha virt. eigenvalues --    0.35929   0.37200   0.38355   0.38911   0.39664
 Alpha virt. eigenvalues --    0.39770   0.40842   0.42190   0.42660   0.43586
 Alpha virt. eigenvalues --    0.44321   0.44590   0.45254   0.45770   0.47792
 Alpha virt. eigenvalues --    0.48957   0.49312   0.51376   0.51956   0.52647
 Alpha virt. eigenvalues --    0.53487   0.54366   0.55335   0.55969   0.57045
 Alpha virt. eigenvalues --    0.57589   0.59155   0.59611   0.60808   0.61581
 Alpha virt. eigenvalues --    0.63169   0.64006   0.67585   0.70743   0.73389
 Alpha virt. eigenvalues --    0.74820   0.76638   0.77752   0.80424   0.82040
 Alpha virt. eigenvalues --    0.84025   0.85004   0.86481   0.88908   0.89404
 Alpha virt. eigenvalues --    0.91594   0.93728   0.94687   0.95765   0.96624
 Alpha virt. eigenvalues --    0.97669   0.98826   0.98877   1.00020   1.02742
 Alpha virt. eigenvalues --    1.03568   1.05314   1.06280   1.08566   1.09758
 Alpha virt. eigenvalues --    1.10764   1.11426   1.12752   1.14477   1.17576
 Alpha virt. eigenvalues --    1.17955   1.19753   1.21161   1.24518   1.25614
 Alpha virt. eigenvalues --    1.27933   1.31164   1.34638   1.35053   1.36552
 Alpha virt. eigenvalues --    1.41756   1.42935   1.44403   1.47074   1.47796
 Alpha virt. eigenvalues --    1.49056   1.50991   1.51434   1.52059   1.54059
 Alpha virt. eigenvalues --    1.57467   1.58529   1.62418   1.65977   1.67232
 Alpha virt. eigenvalues --    1.69026   1.72918   1.77094   1.82382   1.85086
 Alpha virt. eigenvalues --    1.87710   1.88322   1.92241   1.93802   1.97476
 Alpha virt. eigenvalues --    1.98982   2.04028   2.05048   2.06264   2.07474
 Alpha virt. eigenvalues --    2.12016   2.13586   2.16301   2.23308   2.24643
 Alpha virt. eigenvalues --    2.27164   2.31507   2.42303   2.42492   2.50864
 Alpha virt. eigenvalues --    2.55254   2.58308   2.61742   2.63608   2.68778
 Alpha virt. eigenvalues --    2.69656   2.74338   2.76482   2.79392   2.80222
 Alpha virt. eigenvalues --    2.82683   2.89446   2.96709   3.16724   3.19786
 Alpha virt. eigenvalues --    3.21072   3.33140   3.33512   3.34029   3.35819
 Alpha virt. eigenvalues --    3.37191   3.38104   3.39076   3.40330   3.41090
 Alpha virt. eigenvalues --    3.41710   3.44042   3.45709   3.45802   3.48029
 Alpha virt. eigenvalues --    3.49461   3.51475   3.55773   3.58781   3.60464
 Alpha virt. eigenvalues --    3.86989   3.89419   3.92687   3.95092  37.25791
          Condensed to atoms (all electrons):
              1          2          3          4          5          6
     1  Al  11.278607   0.041278  -0.070449  -0.020412   0.086223   0.071706
     2  O    0.041278   8.017096   0.017861   0.001621  -0.031323   0.002325
     3  O   -0.070449   0.017861   8.440231   0.013877   0.016004   0.007605
     4  O   -0.020412   0.001621   0.013877   8.361944  -0.017683   0.257206
     5  O    0.086223  -0.031323   0.016004  -0.017683   7.909522   0.004902
     6  H    0.071706   0.002325   0.007605   0.257206   0.004902   0.613531
     7  H   -0.006667   0.368378  -0.007995   0.002683  -0.002714   0.000671
     8  H   -0.008389   0.000770   0.005391  -0.000576   0.410722   0.000564
     9  H    0.055953   0.003166   0.256351   0.006805   0.003842  -0.004913
    10  Rh  -0.143128   0.119581   0.040686   0.032504   0.081156   0.000872
    11  C    0.067920  -0.077734  -0.010215   0.004791  -0.008966  -0.000697
    12  O   -0.006312   0.011122   0.000444  -0.000093   0.000967   0.000010
              7          8          9         10         11         12
     1  Al  -0.006667  -0.008389   0.055953  -0.143128   0.067920  -0.006312
     2  O    0.368378   0.000770   0.003166   0.119581  -0.077734   0.011122
     3  O   -0.007995   0.005391   0.256351   0.040686  -0.010215   0.000444
     4  O    0.002683  -0.000576   0.006805   0.032504   0.004791  -0.000093
     5  O   -0.002714   0.410722   0.003842   0.081156  -0.008966   0.000967
     6  H    0.000671   0.000564  -0.004913   0.000872  -0.000697   0.000010
     7  H    0.534844   0.001699  -0.000586   0.012960  -0.006192   0.001365
     8  H    0.001699   0.556576   0.000260  -0.020223   0.008499  -0.000014
     9  H   -0.000586   0.000260   0.614977   0.004094   0.000386   0.000060
    10  Rh   0.012960  -0.020223   0.004094  16.782892  -0.743319   0.087431
    11  C   -0.006192   0.008499   0.000386  -0.743319   6.831631   0.100841
    12  O    0.001365  -0.000014   0.000060   0.087431   0.100841   8.008248
 Mulliken atomic charges:
              1
     1  Al   1.653671
     2  O   -0.474141
     3  O   -0.709791
     4  O   -0.642667
     5  O   -0.452650
     6  H    0.046219
     7  H    0.101554
     8  H    0.044722
     9  H    0.059604
    10  Rh   0.744493
    11  C   -0.166945
    12  O   -0.204070
 Sum of Mulliken charges=   0.00000
 Atomic charges with hydrogens summed into heavy atoms:
              1
     1  Al   1.653671
     2  O   -0.372587
     3  O   -0.650187
     4  O   -0.596447
     5  O   -0.407929
     6  H    0.000000
     7  H    0.000000
     8  H    0.000000
     9  H    0.000000
    10  Rh   0.744493
    11  C   -0.166945
    12  O   -0.204070
 Sum of Mulliken charges=   0.00000
 Electronic spatial extent (au):  <R**2>=  1839.9879
 Charge=     0.0000 electrons
 Dipole moment (field-independent basis, Debye):
    X=     0.4999    Y=    -1.0074    Z=     1.3147  Tot=     1.7301
 Quadrupole moment (field-independent basis, Debye-Ang):
   XX=   -66.3913   YY=   -62.0637   ZZ=   -67.5337
   XY=    -7.3537   XZ=    -2.0032   YZ=    -9.1883
 Traceless Quadrupole moment (field-independent basis, Debye-Ang):
   XX=    -1.0617   YY=     3.2659   ZZ=    -2.2042
   XY=    -7.3537   XZ=    -2.0032   YZ=    -9.1883
 Octapole moment (field-independent basis, Debye-Ang**2):
  XXX=   -20.5409  YYY=   -32.3762  ZZZ=     6.8551  XYY=     9.0876
  XXY=     0.6857  XXZ=    14.5881  XZZ=    10.3672  YZZ=   -11.2115
  YYZ=     1.7998  XYZ=     8.5845
 Hexadecapole moment (field-independent basis, Debye-Ang**3):
 XXXX= -1666.8475 YYYY=  -354.1827 ZZZZ=  -230.7302 XXXY=  -182.3916
 XXXZ=    -8.4267 YYYX=   -24.3170 YYYZ=   -35.6922 ZZZX=    -7.5610
 ZZZY=   -20.6265 XXYY=  -356.2813 XXZZ=  -310.2066 YYZZ=   -86.2128
 XXYZ=   -19.6441 YYXZ=    -6.2893 ZZXY=   -10.6051
 N-N= 5.301525240320D+02 E-N=-2.856312134498D+03  KE= 6.960810971629D+02
 No NMR shielding tensors so no spin-rotation constants.
 Leave Link  601 at Fri Feb 15 09:23:20 2008, MaxMem=  104857600 cpu:       0.5
 (Enter /usr/local/g03/l607.exe)
 ******************************Gaussian NBO Version 3.1******************************
             N A T U R A L   A T O M I C   O R B I T A L   A N D
          N A T U R A L   B O N D   O R B I T A L   A N A L Y S I S
 ******************************Gaussian NBO Version 3.1******************************
       /RESON  / : Allow strongly delocalized NBO set

 Analyzing the SCF density

 Job title: Rh(CO)+Al(OH)4-,singlet                                         

 Storage needed:    196215 in NPA ( 104856760 available)


 NATURAL POPULATIONS:  Natural atomic orbital occupancies 
                                                          
   NAO  Atom  No  lang   Type(AO)    Occupancy      Energy
 ----------------------------------------------------------
     1   Al    1  S      Cor( 1S)     2.00000     -55.46697
     2   Al    1  S      Cor( 2S)     1.99895      -4.69630
     3   Al    1  S      Val( 3S)     0.31045       0.04401
     4   Al    1  S      Ryd( 4S)     0.00020       0.55933
     5   Al    1  S      Ryd( 5S)     0.00017       1.42477
     6   Al    1  px     Cor( 2p)     1.99970      -2.69192
     7   Al    1  px     Val( 4p)     0.19601       0.19451
     8   Al    1  px     Ryd( 5p)     0.00029       0.73439
     9   Al    1  px     Ryd( 3p)     0.00011       0.17006
    10   Al    1  py     Cor( 2p)     1.99965      -2.69325
    11   Al    1  py     Val( 3p)     0.17722       0.15733
    12   Al    1  py     Ryd( 5p)     0.00050       0.56067
    13   Al    1  py     Ryd( 4p)     0.00017       0.19711
    14   Al    1  pz     Cor( 2p)     1.99976      -2.69308
    15   Al    1  pz     Val( 4p)     0.19049       0.14397
    16   Al    1  pz     Ryd( 5p)     0.00031       0.61950
    17   Al    1  pz     Ryd( 3p)     0.00015       0.13801
    18   Al    1  dxy    Ryd( 4d)     0.00197       1.32525
    19   Al    1  dxy    Ryd( 3d)     0.00021       0.37741
    20   Al    1  dxz    Ryd( 4d)     0.00228       1.16813
    21   Al    1  dxz    Ryd( 3d)     0.00029       0.57985
    22   Al    1  dyz    Ryd( 3d)     0.00194       1.30973
    23   Al    1  dyz    Ryd( 4d)     0.00018       1.42171
    24   Al    1  dx2y2  Ryd( 4d)     0.00231       1.25633
    25   Al    1  dx2y2  Ryd( 3d)     0.00027       0.39075
    26   Al    1  dz2    Ryd( 4d)     0.00384       1.10294
    27   Al    1  dz2    Ryd( 3d)     0.00007       0.39743

    28    O    2  S      Cor( 1S)     1.99989     -19.02181
    29    O    2  S      Val( 2S)     1.76620      -0.98256
    30    O    2  S      Ryd( 3S)     0.00437       0.92038
    31    O    2  S      Ryd( 4S)     0.00057       1.31438
    32    O    2  px     Val( 2p)     1.77218      -0.37308
    33    O    2  px     Ryd( 3p)     0.00233       0.68693
    34    O    2  px     Ryd( 4p)     0.00060       0.89629
    35    O    2  py     Val( 2p)     1.62270      -0.34105
    36    O    2  py     Ryd( 4p)     0.00401       1.11103
    37    O    2  py     Ryd( 3p)     0.00105       0.99055
    38    O    2  pz     Val( 2p)     1.90796      -0.35578
    39    O    2  pz     Ryd( 3p)     0.00364       0.55670
    40    O    2  pz     Ryd( 4p)     0.00039       0.98028
    41    O    2  dxy    Ryd( 3d)     0.00017       1.67218
    42    O    2  dxy    Ryd( 4d)     0.00030       3.39065
    43    O    2  dxz    Ryd( 3d)     0.00212       1.22101
    44    O    2  dxz    Ryd( 4d)     0.00006       3.34959
    45    O    2  dyz    Ryd( 3d)     0.00152       1.47476
    46    O    2  dyz    Ryd( 4d)     0.00015       3.36439
    47    O    2  dx2y2  Ryd( 3d)     0.00063       1.62975
    48    O    2  dx2y2  Ryd( 4d)     0.00072       3.43711
    49    O    2  dz2    Ryd( 3d)     0.00097       1.27889
    50    O    2  dz2    Ryd( 4d)     0.00037       3.35129

    51    O    3  S      Cor( 1S)     1.99988     -18.93845
    52    O    3  S      Val( 2S)     1.78300      -0.92416
    53    O    3  S      Ryd( 4S)     0.00113       2.28408
    54    O    3  S      Ryd( 3S)     0.00038       0.94901
    55    O    3  px     Val( 2p)     1.65532      -0.26453
    56    O    3  px     Ryd( 3p)     0.00267       0.85408
    57    O    3  px     Ryd( 4p)     0.00044       0.87941
    58    O    3  py     Val( 2p)     1.88756      -0.30231
    59    O    3  py     Ryd( 3p)     0.00134       0.67450
    60    O    3  py     Ryd( 4p)     0.00041       0.73917
    61    O    3  pz     Val( 2p)     1.87885      -0.29989
    62    O    3  pz     Ryd( 3p)     0.00157       0.68133
    63    O    3  pz     Ryd( 4p)     0.00045       0.70203
    64    O    3  dxy    Ryd( 3d)     0.00197       1.22652
    65    O    3  dxy    Ryd( 4d)     0.00013       3.35033
    66    O    3  dxz    Ryd( 3d)     0.00184       1.27778
    67    O    3  dxz    Ryd( 4d)     0.00024       3.36248
    68    O    3  dyz    Ryd( 3d)     0.00329       1.10880
    69    O    3  dyz    Ryd( 4d)     0.00002       3.32232
    70    O    3  dx2y2  Ryd( 3d)     0.00121       1.54484
    71    O    3  dx2y2  Ryd( 4d)     0.00070       3.35754
    72    O    3  dz2    Ryd( 3d)     0.00136       1.21912
    73    O    3  dz2    Ryd( 4d)     0.00022       3.33644

    74    O    4  S      Cor( 1S)     1.99988     -18.93699
    75    O    4  S      Val( 2S)     1.78053      -0.92225
    76    O    4  S      Ryd( 4S)     0.00110       2.28725
    77    O    4  S      Ryd( 3S)     0.00040       0.98262
    78    O    4  px     Val( 2p)     1.69381      -0.28738
    79    O    4  px     Ryd( 4p)     0.00270       0.78749
    80    O    4  px     Ryd( 3p)     0.00054       0.77105
    81    O    4  py     Val( 2p)     1.82223      -0.28122
    82    O    4  py     Ryd( 3p)     0.00137       0.72054
    83    O    4  py     Ryd( 4p)     0.00043       0.76031
    84    O    4  pz     Val( 2p)     1.90152      -0.29449
    85    O    4  pz     Ryd( 3p)     0.00162       0.65982
    86    O    4  pz     Ryd( 4p)     0.00039       0.71886
    87    O    4  dxy    Ryd( 3d)     0.00150       1.62971
    88    O    4  dxy    Ryd( 4d)     0.00082       3.38594
    89    O    4  dxz    Ryd( 3d)     0.00211       1.19321
    90    O    4  dxz    Ryd( 4d)     0.00008       3.34346
    91    O    4  dyz    Ryd( 3d)     0.00285       1.12693
    92    O    4  dyz    Ryd( 4d)     0.00009       3.31502
    93    O    4  dx2y2  Ryd( 3d)     0.00203       1.22440
    94    O    4  dx2y2  Ryd( 4d)     0.00007       3.35003
    95    O    4  dz2    Ryd( 3d)     0.00138       1.21469
    96    O    4  dz2    Ryd( 4d)     0.00025       3.32627

    97    O    5  S      Cor( 1S)     1.99990     -19.01429
    98    O    5  S      Val( 2S)     1.75650      -0.97470
    99    O    5  S      Ryd( 4S)     0.00552       2.05110
   100    O    5  S      Ryd( 3S)     0.00068       1.74787
   101    O    5  px     Val( 2p)     1.80499      -0.36937
   102    O    5  px     Ryd( 4p)     0.00366       2.78945
   103    O    5  px     Ryd( 3p)     0.00052       1.58709
   104    O    5  py     Val( 2p)     1.79740      -0.36029
   105    O    5  py     Ryd( 3p)     0.00306       0.80086
   106    O    5  py     Ryd( 4p)     0.00076       1.16973
   107    O    5  pz     Val( 2p)     1.78198      -0.34079
   108    O    5  pz     Ryd( 4p)     0.00427       0.97111
   109    O    5  pz     Ryd( 3p)     0.00052       0.93803
   110    O    5  dxy    Ryd( 3d)     0.00128       1.45719
   111    O    5  dxy    Ryd( 4d)     0.00019       3.28799
   112    O    5  dxz    Ryd( 3d)     0.00030       1.56373
   113    O    5  dxz    Ryd( 4d)     0.00020       3.28753
   114    O    5  dyz    Ryd( 3d)     0.00105       1.65777
   115    O    5  dyz    Ryd( 4d)     0.00075       3.40124
   116    O    5  dx2y2  Ryd( 3d)     0.00056       2.20586
   117    O    5  dx2y2  Ryd( 4d)     0.00009       3.29968
   118    O    5  dz2    Ryd( 3d)     0.00063       1.59276
   119    O    5  dz2    Ryd( 4d)     0.00025       3.27080

   120    H    6  S      Val( 1S)     0.49892       0.18264
   121    H    6  S      Ryd( 3S)     0.00059       0.49305
   122    H    6  S      Ryd( 2S)     0.00012       0.41817
   123    H    6  px     Ryd( 3p)     0.00097       1.79322
   124    H    6  px     Ryd( 2p)     0.00108       1.07984
   125    H    6  py     Ryd( 3p)     0.00176       1.63273
   126    H    6  py     Ryd( 2p)     0.00064       1.11916
   127    H    6  pz     Ryd( 3p)     0.00178       1.34068
   128    H    6  pz     Ryd( 2p)     0.00022       1.11327

   129    H    7  S      Val( 1S)     0.46959       0.14568
   130    H    7  S      Ryd( 2S)     0.00064       0.47087
   131    H    7  S      Ryd( 3S)     0.00007       0.64022
   132    H    7  px     Ryd( 3p)     0.00066       1.80193
   133    H    7  px     Ryd( 2p)     0.00019       1.10877
   134    H    7  py     Ryd( 3p)     0.00164       2.39242
   135    H    7  py     Ryd( 2p)     0.00057       0.90726
   136    H    7  pz     Ryd( 3p)     0.00103       1.71133
   137    H    7  pz     Ryd( 2p)     0.00043       0.94946

   138    H    8  S      Val( 1S)     0.46746       0.14166
   139    H    8  S      Ryd( 2S)     0.00073       0.47106
   140    H    8  S      Ryd( 3S)     0.00007       0.64803
   141    H    8  px     Ryd( 3p)     0.00076       1.81788
   142    H    8  px     Ryd( 2p)     0.00017       1.15753
   143    H    8  py     Ryd( 3p)     0.00128       1.88994
   144    H    8  py     Ryd( 2p)     0.00048       0.98087
   145    H    8  pz     Ryd( 3p)     0.00155       2.02390
   146    H    8  pz     Ryd( 2p)     0.00057       1.01534

   147    H    9  S      Val( 1S)     0.49960       0.18217
   148    H    9  S      Ryd( 3S)     0.00047       0.49302
   149    H    9  S      Ryd( 2S)     0.00010       0.47950
   150    H    9  px     Ryd( 3p)     0.00123       2.05267
   151    H    9  px     Ryd( 2p)     0.00145       1.09152
   152    H    9  py     Ryd( 3p)     0.00165       1.35019
   153    H    9  py     Ryd( 2p)     0.00023       1.12261
   154    H    9  pz     Ryd( 3p)     0.00160       1.37393
   155    H    9  pz     Ryd( 2p)     0.00028       1.10892

   156   Rh   10  S      Cor( 4S)     1.99584      -3.18118
   157   Rh   10  S      Val( 5S)     0.24064       0.40742
   158   Rh   10  S      Ryd( 7S)     0.00267       2.61627
   159   Rh   10  S      Ryd( 8S)     0.00022       3.84056
   160   Rh   10  S      Ryd( 6S)     0.00007       0.98305
   161   Rh   10  px     Cor( 4p)     1.99725      -1.99111
   162   Rh   10  px     Ryd( 8p)     0.00108       1.81794
   163   Rh   10  px     Ryd( 7p)     0.00048       1.50801
   164   Rh   10  px     Ryd( 6p)     0.00025       0.80050
   165   Rh   10  px     Ryd( 5p)     0.00010       0.42971
   166   Rh   10  py     Cor( 4p)     1.99786      -1.98376
   167   Rh   10  py     Ryd( 8p)     0.00099       5.43971
   168   Rh   10  py     Ryd( 6p)     0.00025       1.34123
   169   Rh   10  py     Ryd( 7p)     0.00029       2.38815
   170   Rh   10  py     Ryd( 5p)     0.00008       0.74739
   171   Rh   10  pz     Cor( 4p)     1.99881      -1.96123
   172   Rh   10  pz     Ryd( 7p)     0.00259       0.90320
   173   Rh   10  pz     Ryd( 8p)     0.00030       1.18323
   174   Rh   10  pz     Ryd( 6p)     0.00013       0.43429
   175   Rh   10  pz     Ryd( 5p)     0.00006       0.19078
   176   Rh   10  dxy    Val( 4d)     1.06689      -0.23860
   177   Rh   10  dxy    Ryd( 6d)     0.00131       0.90156
   178   Rh   10  dxy    Ryd( 5d)     0.00030       0.41179
   179   Rh   10  dxy    Ryd( 7d)     0.00006       2.23470
   180   Rh   10  dxz    Val( 4d)     1.64288      -0.24748
   181   Rh   10  dxz    Ryd( 6d)     0.00123       0.49852
   182   Rh   10  dxz    Ryd( 5d)     0.00024       0.24769
   183   Rh   10  dxz    Ryd( 7d)     0.00003       1.89077
   184   Rh   10  dyz    Val( 4d)     1.84090      -0.25057
   185   Rh   10  dyz    Ryd( 6d)     0.00123       0.43385
   186   Rh   10  dyz    Ryd( 5d)     0.00028       0.33766
   187   Rh   10  dyz    Ryd( 7d)     0.00004       1.90640
   188   Rh   10  dx2y2  Val( 4d)     1.68246      -0.26966
   189   Rh   10  dx2y2  Ryd( 6d)     0.00159       1.17731
   190   Rh   10  dx2y2  Ryd( 5d)     0.00020       0.38764
   191   Rh   10  dx2y2  Ryd( 7d)     0.00006       2.14467
   192   Rh   10  dz2    Val( 4d)     1.92783      -0.25234
   193   Rh   10  dz2    Ryd( 6d)     0.00072       0.78759
   194   Rh   10  dz2    Ryd( 5d)     0.00026       0.51704
   195   Rh   10  dz2    Ryd( 7d)     0.00004       2.26482
   196   Rh   10  f(0)   Ryd( 4f)     0.00021       1.52748
   197   Rh   10  f(0)   Ryd( 5f)     0.00004       2.18802
   198   Rh   10  f(C1)  Ryd( 4f)     0.00027       1.53088
   199   Rh   10  f(C1)  Ryd( 5f)     0.00005       2.24761
   200   Rh   10  f(S1)  Ryd( 4f)     0.00023       1.52170
   201   Rh   10  f(S1)  Ryd( 5f)     0.00005       2.08573
   202   Rh   10  f(C2)  Ryd( 4f)     0.00019       1.54970
   203   Rh   10  f(C2)  Ryd( 5f)     0.00005       2.19312
   204   Rh   10  f(S2)  Ryd( 4f)     0.00023       1.59992
   205   Rh   10  f(S2)  Ryd( 5f)     0.00007       2.40285
   206   Rh   10  f(C3)  Ryd( 4f)     0.00033       1.62406
   207   Rh   10  f(C3)  Ryd( 5f)     0.00008       2.59348
   208   Rh   10  f(S3)  Ryd( 4f)     0.00040       1.55106
   209   Rh   10  f(S3)  Ryd( 5f)     0.00012       2.46997

   210    C   11  S      Cor( 1S)     1.99979     -10.27743
   211    C   11  S      Val( 2S)     1.44387      -0.46059
   212    C   11  S      Ryd( 3S)     0.02448       0.94156
   213    C   11  S      Ryd( 4S)     0.00009       2.64532
   214    C   11  px     Val( 2p)     0.74648      -0.09160
   215    C   11  px     Ryd( 4p)     0.01002       1.00357
   216    C   11  px     Ryd( 3p)     0.00028       0.59557
   217    C   11  py     Val( 2p)     0.69271      -0.13092
   218    C   11  py     Ryd( 4p)     0.00547       1.01417
   219    C   11  py     Ryd( 3p)     0.00027       0.45944
   220    C   11  pz     Val( 2p)     0.60404      -0.16292
   221    C   11  pz     Ryd( 4p)     0.00119       0.51701
   222    C   11  pz     Ryd( 3p)     0.00038       0.27235
   223    C   11  dxy    Ryd( 3d)     0.00132       1.97807
   224    C   11  dxy    Ryd( 4d)     0.00034       4.03630
   225    C   11  dxz    Ryd( 4d)     0.00122       1.63360
   226    C   11  dxz    Ryd( 3d)     0.00048       0.96467
   227    C   11  dyz    Ryd( 4d)     0.00068       1.50121
   228    C   11  dyz    Ryd( 3d)     0.00038       0.81713
   229    C   11  dx2y2  Ryd( 4d)     0.00175       1.82308
   230    C   11  dx2y2  Ryd( 3d)     0.00035       1.18141
   231    C   11  dz2    Ryd( 3d)     0.00051       1.57656
   232    C   11  dz2    Ryd( 4d)     0.00023       1.64536

   233    O   12  S      Cor( 1S)     1.99981     -19.03470
   234    O   12  S      Val( 2S)     1.76886      -1.01358
   235    O   12  S      Ryd( 3S)     0.00595       1.05945
   236    O   12  S      Ryd( 4S)     0.00002       1.57969
   237    O   12  px     Val( 2p)     1.56510      -0.37905
   238    O   12  px     Ryd( 4p)     0.00032       0.89021
   239    O   12  px     Ryd( 3p)     0.00007       0.68099
   240    O   12  py     Val( 2p)     1.57194      -0.36332
   241    O   12  py     Ryd( 4p)     0.00034       0.73880
   242    O   12  py     Ryd( 3p)     0.00003       0.65651
   243    O   12  pz     Val( 2p)     1.56723      -0.34591
   244    O   12  pz     Ryd( 4p)     0.00070       0.66476
   245    O   12  pz     Ryd( 3p)     0.00001       0.66340
   246    O   12  dxy    Ryd( 3d)     0.00884       1.64284
   247    O   12  dxy    Ryd( 4d)     0.00005       2.83257
   248    O   12  dxz    Ryd( 3d)     0.00414       1.26696
   249    O   12  dxz    Ryd( 4d)     0.00007       2.82999
   250    O   12  dyz    Ryd( 3d)     0.00214       1.21002
   251    O   12  dyz    Ryd( 4d)     0.00003       2.81345
   252    O   12  dx2y2  Ryd( 3d)     0.00629       1.36823
   253    O   12  dx2y2  Ryd( 4d)     0.00005       2.85647
   254    O   12  dz2    Ryd( 3d)     0.00309       1.31702
   255    O   12  dz2    Ryd( 4d)     0.00002       2.79981

 [ 28 electrons found in the effective core potential]

 WARNING:  1 low occupancy (<1.9990e) core orbital  found on Al    1
           4 low occupancy (<1.9990e) core orbitals found on Rh   10

 WARNING:  Population inversion found on atom Al    1
           Population inversion found on atom  O    2
           Population inversion found on atom  O    3
           Population inversion found on atom  O    4
           Population inversion found on atom  O    5
           Population inversion found on atom  H    6
           Population inversion found on atom  H    7
           Population inversion found on atom  H    8
           Population inversion found on atom  H    9
           Population inversion found on atom Rh   10
           Population inversion found on atom  C   11
           Population inversion found on atom  O   12


 Summary of Natural Population Analysis:                  
                                                          
                                       Natural Population 
                Natural  -----------------------------------------------
    Atom  No    Charge         Core      Valence    Rydberg      Total
 -----------------------------------------------------------------------
     Al    1    2.11249      9.99806     0.87418    0.01527    10.88751
      O    2   -1.09291      1.99989     7.06904    0.02398     9.09291
      O    3   -1.22399      1.99988     7.20473    0.01937     9.22399
      O    4   -1.21769      1.99988     7.19808    0.01973     9.21769
      O    5   -1.16506      1.99990     7.14087    0.02429     9.16506
      H    6    0.49392      0.00000     0.49892    0.00715     0.50608
      H    7    0.52519      0.00000     0.46959    0.00523     0.47481
      H    8    0.52694      0.00000     0.46746    0.00560     0.47306
      H    9    0.49338      0.00000     0.49960    0.00702     0.50662
     Rh   10    0.58916     35.98976     8.40160    0.01948    44.41084
      C   11    0.46366      1.99979     3.48709    0.04946     5.53634
      O   12   -0.50510      1.99981     6.47312    0.03216     8.50510
 =======================================================================
   * Total *    0.00000     57.98697    49.78429    0.22874   108.00000

                                 Natural Population      
 --------------------------------------------------------
   Effective Core            28.00000
   Core                      29.98697 ( 99.9566% of  30)
   Valence                   49.78429 ( 99.5686% of  50)
   Natural Minimal Basis    107.77126 ( 99.7882% of 108)
   Natural Rydberg Basis      0.22874 (  0.2118% of 108)
 --------------------------------------------------------

    Atom  No          Natural Electron Configuration
 ----------------------------------------------------------------------------
     Al    1      [core]3S( 0.31)3p( 0.18)4p( 0.39)4d( 0.01)
      O    2      [core]2S( 1.77)2p( 5.30)3p( 0.01)3d( 0.01)4p( 0.01)
      O    3      [core]2S( 1.78)2p( 5.42)3p( 0.01)3d( 0.01)
      O    4      [core]2S( 1.78)2p( 5.42)3d( 0.01)
      O    5      [core]2S( 1.76)2p( 5.38)4S( 0.01)4p( 0.01)
      H    6            1S( 0.50)
      H    7            1S( 0.47)
      H    8            1S( 0.47)
      H    9            1S( 0.50)
     Rh   10      [core]5S( 0.24)4d( 8.16)6d( 0.01)
      C   11      [core]2S( 1.44)2p( 2.04)3S( 0.02)4p( 0.02)
      O   12      [core]2S( 1.77)2p( 4.70)3S( 0.01)3d( 0.02)


 NBO analysis skipped by request.
 Leave Link  607 at Fri Feb 15 09:23:24 2008, MaxMem=  104857600 cpu:       2.1
 (Enter /usr/local/g03/l701.exe)
 Compute integral first derivatives.
 ... and contract with generalized density number  0.
   1 Symmetry operations used in ECPInt.
 ECPInt:  NShTT=    5151 NPrTT=   38823 LenC2=    5039 LenP2D=   27572.
 LDataN:  DoStor=F MaxTD1= 8 Len=  415
 LDataN:  DoStor=T MaxTD1= 8 Len=  415
 Leave Link  701 at Fri Feb 15 09:23:29 2008, MaxMem=  104857600 cpu:       4.5
 (Enter /usr/local/g03/l702.exe)
 L702 exits ... SP integral derivatives will be done elsewhere.
 Leave Link  702 at Fri Feb 15 09:23:30 2008, MaxMem=  104857600 cpu:       0.0
 (Enter /usr/local/g03/l703.exe)
 Compute integral first derivatives, UseDBF=F.
 Integral derivatives from FoFDir, PRISM(SPDF).
 Symmetry not used in FoFDir.
 MinBra= 0 MaxBra= 3 Meth= 1.
 IRaf=       0 NMat=   1 IRICut=       1 DoRegI=T DoRafI=F ISym2E= 0 JSym2E=0.
 Defaulting to unpruned grid for atomic number  45.
 Defaulting to unpruned grid for atomic number  45.
 Leave Link  703 at Fri Feb 15 09:28:44 2008, MaxMem=  104857600 cpu:     311.3
 (Enter /usr/local/g03/l716.exe)
 Dipole        = 1.96678210D-01-3.96347248D-01 5.17253309D-01
 ***** Axes restored to original set *****
 -------------------------------------------------------------------
 Center     Atomic                   Forces (Hartrees/Bohr)
 Number     Number              X              Y              Z
 -------------------------------------------------------------------
    1         13           0.002605514   -0.001709811   -0.006203950
[...]
     31 -0.212028D-04 -0.370087D-04 -0.257033D-04  0.468804D-03 -0.460413D-03
     32  0.248852D-04  0.486493D-04 -0.148559D-03  0.305099D-03  0.278654D-02
     33 -0.246091D-03 -0.458650D-03  0.946992D-04  0.148660D-02 -0.117656D-02
     34  0.205572D-04  0.375773D-04  0.143316D-04 -0.277214D-03  0.222481D-03
     35 -0.104768D-04 -0.174313D-04  0.447084D-04  0.236334D-04 -0.815523D-03
     36  0.160768D-03  0.266009D-03 -0.101547D-04 -0.116898D-02  0.121853D-03
               21            22            23            24            25
     21  0.410200D-01
     22 -0.727565D-03  0.867170D-01
     23  0.570666D-03  0.139177D+00  0.267432D+00
     24 -0.187694D-03 -0.125966D+00 -0.211347D+00  0.210718D+00
     25  0.318260D-03  0.873676D-04 -0.153980D-03  0.168789D-03  0.289014D-01
     26 -0.448585D-03 -0.194747D-03  0.230506D-03 -0.428990D-03 -0.448347D-01
     27  0.456996D-03  0.220283D-03 -0.359303D-03  0.142501D-03 -0.750980D-01
     28  0.157845D-02 -0.552013D-03  0.277505D-02  0.780767D-02  0.491504D-04
     29  0.480231D-03  0.567385D-02  0.259438D-02  0.111187D-01  0.109518D-05
     30 -0.372050D-03  0.232026D-02  0.904213D-03 -0.468064D-02 -0.168024D-03
     31  0.182079D-02  0.631188D-03 -0.107977D-02 -0.484867D-02  0.385525D-04
     32 -0.418650D-03 -0.293692D-02 -0.102256D-02 -0.431685D-02  0.261174D-04
     33  0.228580D-02 -0.198627D-02 -0.381585D-03 -0.337294D-02  0.198266D-03
     34 -0.575272D-03 -0.279276D-03  0.195016D-03  0.148971D-02 -0.330289D-04
     35  0.689570D-04  0.880908D-03  0.346795D-03  0.123025D-02 -0.433861D-05
     36 -0.191760D-02  0.154100D-03 -0.126593D-02  0.848445D-03 -0.141872D-03
               26            27            28            29            30
     26  0.165246D+00
     27  0.244783D+00  0.375294D+00
     28  0.164254D-03 -0.212876D-03  0.100046D+00
     29 -0.346498D-03  0.218819D-03 -0.467372D-01  0.196163D+00
     30  0.431732D-03 -0.473625D-03  0.430937D-01  0.167133D-01  0.318873D+00
     31 -0.614330D-04  0.433483D-04 -0.781693D-01  0.697879D-02 -0.258734D-01
     32  0.100230D-03 -0.853760D-04  0.134520D-01 -0.905836D-01  0.261869D-01
     33 -0.204472D-03 -0.603057D-04 -0.164097D-01  0.760792D-03 -0.152119D+00
     34  0.288446D-04  0.870976D-05  0.259854D-01  0.141646D-03 -0.115319D-01
     35 -0.419578D-04  0.301271D-04 -0.249191D-02  0.304727D-01 -0.695909D-02
     36  0.959377D-04  0.138513D-03 -0.154506D-01  0.340926D-02 -0.511863D-01
               31            32            33            34            35
     31  0.134405D+00
     32 -0.819884D-02  0.111649D+00
     33  0.198524D+00 -0.383774D-02  0.116942D+01
     34 -0.771270D-01  0.736366D-03 -0.176718D+00  0.577692D-01
     35  0.109174D-02 -0.450751D-01  0.380831D-02  0.247104D-04  0.213429D-01
     36 -0.176733D+00  0.291484D-02 -0.100072D+01  0.190745D+00 -0.350942D-02
               36
     36  0.105580D+01
 Leave Link  716 at Sat Feb 16 05:19:11 2008, MaxMem=  104857600 cpu:       0.0
 (Enter /usr/local/g03/l103.exe)

 GradGradGradGradGradGradGradGradGradGradGradGradGradGradGradGradGradGrad
 Berny optimization.
 Internal  Forces:  Max     0.000030073 RMS     0.000007260
 Search for a local minimum.
 Step number   1 out of a maximum of   2
 All quantities printed in internal units (Hartrees-Bohrs-Radians)
 Second derivative matrix not updated -- analytic derivatives used.
     Eigenvalues ---    0.00044   0.00056   0.00155   0.00173   0.00435
     Eigenvalues ---    0.01042   0.02134   0.02389   0.02889   0.03203
     Eigenvalues ---    0.03703   0.04200   0.04721   0.04914   0.05639
     Eigenvalues ---    0.06330   0.08625   0.08998   0.11536   0.12166
     Eigenvalues ---    0.14601   0.16759   0.22995   0.24209   0.26237
     Eigenvalues ---    0.52362   0.53168   0.55199   0.55576   1.09498
     Eigenvalues --- 1000.000001000.000001000.000001000.000001000.00000
     Eigenvalues --- 1000.000001000.000001000.000001000.000001000.00000
     Eigenvalues --- 1000.000001000.000001000.000001000.000001000.00000
     Eigenvalues --- 1000.000001000.000001000.000001000.000001000.00000
     Eigenvalues --- 1000.000001000.000001000.000001000.000001000.00000
     Eigenvalues --- 1000.000001000.00000
 Angle between quadratic step and forces=  37.83 degrees.
 Linear search not attempted -- first point.
 Iteration  1 RMS(Cart)=  0.00394330 RMS(Int)=  0.00004250
 Iteration  2 RMS(Cart)=  0.00004908 RMS(Int)=  0.00001273
 Iteration  3 RMS(Cart)=  0.00000001 RMS(Int)=  0.00001273
 Variable       Old X    -DE/DX   Delta X   Delta X   Delta X     New X
                                 (Linear)    (Quad)   (Total)
    R1        3.54023   0.00000   0.00000  -0.00002  -0.00001   3.54021
    R2        3.29827   0.00000   0.00000   0.00001   0.00001   3.29828
    R3        3.27422   0.00000   0.00000  -0.00008  -0.00008   3.27414
    R4        3.49238   0.00001   0.00000  -0.00015  -0.00014   3.49224
    R5        1.82548   0.00000   0.00000  -0.00002  -0.00002   1.82546
    R6        3.85463   0.00000   0.00000   0.00007   0.00006   3.85469
    R7        1.81318   0.00000   0.00000   0.00003   0.00003   1.81321
    R8        1.81147   0.00000   0.00000  -0.00001  -0.00001   1.81146
    R9        1.82171   0.00001   0.00000   0.00002   0.00002   1.82174
   R10        3.93933   0.00000   0.00000   0.00044   0.00043   3.93976
   R11        3.46255   0.00000   0.00000  -0.00006  -0.00006   3.46249
   R12        2.18009   0.00002   0.00000   0.00002   0.00002   2.18011
    A1        1.83913   0.00000   0.00000   0.00028   0.00028   1.83941
    A2        1.99090   0.00000   0.00000   0.00025   0.00025   1.99115
    A3        1.54387   0.00000   0.00000   0.00002   0.00003   1.54390
    A4        2.15637   0.00000   0.00000  -0.00014  -0.00013   2.15623
    A5        1.93852   0.00000   0.00000  -0.00074  -0.00074   1.93779
    A6        1.89851   0.00000   0.00000   0.00035   0.00034   1.89885
    A7        1.99679   0.00000   0.00000   0.00019   0.00019   1.99698
    A8        1.69509   0.00000   0.00000   0.00011   0.00010   1.69519
    A9        1.92650   0.00000   0.00000   0.00050   0.00050   1.92700
   A10        2.13009   0.00000   0.00000  -0.00060  -0.00060   2.12949
   A11        2.15833   0.00001   0.00000   0.00049   0.00049   2.15881
   A12        2.02620   0.00000   0.00000  -0.00089  -0.00088   2.02532
   A13        1.68224   0.00000   0.00000   0.00003   0.00002   1.68225
   A14        2.03905   0.00000   0.00000  -0.00123  -0.00123   2.03782
   A15        1.36142   0.00000   0.00000  -0.00013  -0.00012   1.36130
   A16        1.68731  -0.00001   0.00000  -0.00109  -0.00102   1.68629
   A17        3.03850   0.00000   0.00000   0.00108   0.00103   3.03953
   A18        3.13996  -0.00001   0.00000  -0.00121  -0.00121   3.13875
   A19        3.13984   0.00000   0.00000  -0.00350  -0.00350   3.13634
    D1       -0.05857  -0.00001   0.00000  -0.00189  -0.00189  -0.06045
    D2        1.97017  -0.00001   0.00000  -0.00119  -0.00119   1.96898
    D3        2.36120  -0.00001   0.00000  -0.00158  -0.00158   2.35962
    D4       -1.89325  -0.00001   0.00000  -0.00087  -0.00088  -1.89413
    D5       -2.00360  -0.00001   0.00000  -0.00115  -0.00115  -2.00476
    D6        0.02514   0.00000   0.00000  -0.00045  -0.00045   0.02468
    D7        2.47496   0.00000   0.00000  -0.00148  -0.00148   2.47347
    D8        0.14281   0.00000   0.00000  -0.00206  -0.00206   0.14075
    D9       -2.16135   0.00000   0.00000  -0.00157  -0.00157  -2.16292
   D10       -1.40300   0.00001   0.00000   0.01519   0.01520  -1.38780
   D11        0.86837   0.00001   0.00000   0.01581   0.01581   0.88418
   D12       -3.09481   0.00001   0.00000   0.01490   0.01490  -3.07991
   D13        2.14122   0.00000   0.00000  -0.00144  -0.00144   2.13977
   D14       -0.02456   0.00000   0.00000   0.00044   0.00044  -0.02411
   D15        0.29303   0.00001   0.00000  -0.00169  -0.00169   0.29134
   D16       -1.87275   0.00001   0.00000   0.00020   0.00020  -1.87255
   D17       -2.13577   0.00000   0.00000  -0.00112  -0.00112  -2.13689
   D18        1.98165   0.00000   0.00000   0.00076   0.00076   1.98241
   D19       -0.02277   0.00000   0.00000   0.00041   0.00041  -0.02236
   D20        3.07343   0.00000   0.00000   0.00551   0.00549   3.07892
   D21        2.06088   0.00001   0.00000   0.00085   0.00085   2.06173
   D22       -1.12610   0.00001   0.00000   0.00594   0.00593  -1.12017
   D23        0.02305   0.00000   0.00000  -0.00041  -0.00042   0.02263
   D24       -0.43023   0.00003   0.00000   0.04909   0.04909  -0.38113
   D25       -2.13318   0.00000   0.00000   0.00122   0.00122  -2.13195
   D26       -2.58645   0.00003   0.00000   0.05073   0.05073  -2.53572
         Item               Value     Threshold  Converged?
 Maximum Force            0.000030     0.000450     YES
 RMS     Force            0.000007     0.000300     YES
 Maximum Displacement     0.014863     0.001800     NO 
 RMS     Displacement     0.003958     0.001200     NO 
 Predicted change in Energy=-1.648498D-06
 GradGradGradGradGradGradGradGradGradGradGradGradGradGradGradGradGradGrad

 Leave Link  103 at Sat Feb 16 05:19:13 2008, MaxMem=  104857600 cpu:       0.0
 (Enter /usr/local/g03/l9999.exe)
 1\1\ POPLE-N3\Freq\RB3LYP\GenECP\C1H4Al1O5Rh1\MCHEN10\16-Feb-2008\0\\#
 P Geom=AllCheck Guess=Read SCRF=Check GenChk RB3LYP/GenECP Freq\\Rh(CO
 )+Al(OH)4-,singlet\\0,1\Al,0.0314367298,0.0262804205,-0.0300232764\O,0
 .4768146408,0.0876617988,1.7886372435\O,1.5560334016,0.0111079526,-0.8
 795482905\O,-1.2817785789,-1.0416119042,-0.4003231053\O,-0.6260938378,
 1.7465422633,0.1241943176\H,-1.1854660071,-1.9911465621,-0.4897760622\
 H,1.4250728837,0.0492742163,1.9689064825\H,-0.2358985529,2.4038464,-0.
 4631824748\H,1.6935320015,-0.5161384232,-1.6693174286\Rh,-0.2420350114
 ,1.9597119554,2.1619933415\C,0.0873049344,1.9587954663,3.9644541064\O,
 0.2966589019,1.9570172357,5.0989522677\\Version=AM64L-G03RevD.02\State
 =1-A\HF=-769.6487177\RMSD=3.071e-09\RMSF=5.948e-05\ZeroPoint=0.065084\
 Thermal=0.076674\Dipole=0.4469492,0.5046506,-0.2777035\DipoleDeriv=1.6
 234727,0.1555026,-0.1392974,0.1267249,1.7787912,0.5963221,-0.0788509,0
 .605131,1.9624785,-0.5122448,0.162838,0.0578068,0.091261,-0.9186974,-0
 .2423563,-0.0413378,-0.2437537,-0.8282059,-1.0315746,0.0884181,0.34624
 35,-0.0003564,-0.7290185,-0.0557135,0.2084661,-0.08803,-0.9127917,-0.9
 253819,-0.3397014,-0.1132791,-0.2464863,-0.877309,-0.2018721,-0.047094
 ,-0.1582061,-0.8129919,-0.4759606,0.1889954,-0.1267856,0.1521984,-0.72
 74871,-0.1309761,-0.1150402,-0.1538003,-1.2653242,0.2906944,0.0630326,
 0.0100235,0.0787978,0.2058528,0.0085425,0.0107172,0.0082601,0.2843116,
 0.2387287,-0.0973923,-0.0302581,-0.0213622,0.2288353,-0.0511714,0.0235
 162,-0.0579014,0.2600701,0.2577908,-0.0857714,-0.001866,-0.0687639,0.2
 732691,-0.0657747,0.0010502,-0.0465969,0.2702347,0.3166307,0.0051919,-
 0.031196,-0.0079597,0.2357282,-0.0439079,-0.0360065,-0.0615297,0.21386
 38,0.2061666,-0.1217205,-0.1467911,-0.0805374,0.5116136,0.2656298,-0.0
 053896,0.1446735,0.158587,0.1987213,0.0083666,0.5308709,-0.0388065,0.1
 832156,-0.102298,0.2807248,0.2595403,2.5855312,-0.1870433,-0.0277596,-
 0.3554714,0.0152903,-0.1647939,0.0235757,-0.2007555,-0.207787,-1.91576
 32\Polar=73.4176512,1.8489279,77.8502236,1.3764161,13.2912237,115.7452
 473\PG=C01 [X(C1H4Al1O5Rh1)]\NImag=0\\0.35174877,0.06432542,0.27047757
 ,-0.03816834,0.05908594,0.22786044,-0.02955623,0.00199479,-0.03061974,
 0.54250703,0.00664550,-0.02276940,0.00587584,-0.05577307,0.11793560,-0
 .00715296,-0.00491345,-0.08741738,0.12555046,0.01534929,0.17248929,-0.
 15615414,-0.00395263,0.06998834,0.00111063,0.00061069,0.00364862,0.190
 72292,0.01060681,-0.02380420,-0.01141549,0.00140200,0.00488300,-0.0031
 5731,-0.04845291,0.18026945,0.09049905,-0.00333512,-0.07126517,0.00769
 203,-0.00414737,-0.01244156,-0.16443936,0.25621879,0.44564884,-0.12735
 635,-0.08028319,-0.02626083,0.00000949,-0.00491433,-0.00463409,-0.0097
 2543,-0.00896149,0.00085223,0.14320591,-0.10614484,-0.10650346,-0.0300
 1236,-0.00397672,0.00254254,-0.00208325,-0.00461168,0.00399171,-0.0000
 6168,0.05939771,0.65417339,-0.03038833,-0.02641836,-0.02610453,-0.0057
 9837,-0.00527973,-0.00304465,0.00462421,0.00287518,0.00541649,0.029971
 08,0.08514537,0.02843439,-0.03098881,0.02366605,0.00589380,0.00222992,
 0.00503088,-0.00850212,-0.00262000,0.00762926,0.00594169,0.00233796,-0
 .00432945,-0.00047061,0.13263831,0.03521586,-0.09648321,-0.01325606,0.
 00749423,-0.00265497,0.01652359,0.00530506,-0.00312338,-0.00324622,-0.
 00024001,-0.01068096,-0.00092556,0.10247688,0.40242658,-0.00003610,0.0
 1255715,-0.02962135,-0.00745837,0.01107938,-0.00021711,0.00675012,-0.0
 0678779,0.00209806,-0.00030630,-0.00360111,0.00339351,-0.10955430,-0.2
 0480278,0.31911480,-0.00663661,-0.01843709,-0.00356916,-0.00092118,0.0
 0069054,-0.00001894,-0.00044724,0.00204098,-0.00013276,-0.00877389,0.0
 5919568,0.00524932,-0.00012747,-0.00096252,-0.00025819,0.01701503,0.00
 766474,-0.00736928,0.00006291,0.00014522,0.00088160,0.00093507,0.00136
 430,0.00133967,-0.00010131,0.03311800,-0.54056908,-0.05515956,-0.00069
 551,-0.00012934,0.00001774,-0.04146996,0.54630146,-0.00041569,-0.00402
 140,-0.00133188,-0.00097359,0.00080196,-0.00053632,0.00063433,-0.00030
 583,-0.00048647,0.00203415,-0.05025505,-0.00572242,-0.00019514,-0.0002
 6215,0.00146528,-0.00145910,0.05418702,0.00676435,-0.00240627,-0.00143
 099,0.00023813,-0.49391093,0.02333842,-0.10499863,-0.00141795,0.000523
 77,0.00116991,0.00021403,0.00036389,0.00010211,0.00040779,-0.00029819,
 0.00112810,-0.00002621,0.00009587,-0.00010563,0.50078036,-0.00058663,0
 .00200778,0.00304787,0.01557924,-0.01744684,-0.00845158,0.00064325,-0.
 00138927,-0.00028585,-0.00044440,-0.00075519,-0.00123025,-0.00047404,-
 0.00073414,0.00007598,-0.00018064,0.00009102,-0.00015995,-0.02529092,0
 .02094992,-0.01661657,0.00026413,-0.00293050,-0.08917635,-0.00523849,-
 0.03858974,0.00071363,0.00058985,0.00329806,0.00016978,-0.00074699,-0.
 00147994,0.00095269,0.00159257,-0.00142568,-0.00023510,-0.00001081,-0.
 00015763,0.10177726,0.00329713,0.04101997,0.00234656,0.00677291,-0.002
 79210,-0.00182972,0.00085482,-0.00161955,-0.00019076,-0.00174450,-0.00
 015433,-0.00042035,-0.00006406,0.00008922,-0.08665902,-0.14878020,0.13
 054908,0.00017108,0.00004731,-0.00008692,-0.00002205,0.00031333,-0.000
 72757,0.08671700,-0.00718057,-0.01016591,0.00967048,0.00101901,-0.0000
 4022,0.00085266,-0.00165967,0.00253691,0.00030844,0.00067998,-0.001070
 34,-0.00046719,-0.13347419,-0.26032116,0.20181268,-0.00019358,-0.00019
 150,-0.00029778,-0.00010459,-0.00032863,0.00057067,0.13917729,0.267431
 74,-0.00064463,-0.00105242,0.00298708,-0.00015971,-0.00074862,0.000152
 22,0.00026558,0.00021092,-0.00169915,-0.00005643,-0.00157192,-0.000801
 01,0.12215200,0.20690801,-0.20395340,-0.00010541,-0.00027076,-0.000153
 63,-0.00010268,0.00026902,-0.00018769,-0.12596621,-0.21134735,0.210718
 22,-0.00746300,0.00888000,0.01566205,-0.00011362,-0.00018672,0.0004959
 5,-0.02092444,0.03630345,0.06002140,0.00179450,-0.00033796,-0.00231389
 ,-0.00186237,0.00094968,0.00050473,-0.00046514,-0.00045233,0.00035230,
 -0.00000933,-0.00019027,0.00031826,0.00008737,-0.00015398,0.00016879,0
 .02890136,-0.00579244,-0.00058758,0.00233118,-0.00110486,0.00097531,0.
 00221568,0.05121384,-0.16406970,-0.24847257,-0.00012396,-0.00103093,-0
 .00018885,0.00134024,-0.00043717,-0.00037611,-0.00046506,-0.00003251,0
 .00026227,-0.00016993,-0.00000577,-0.00044859,-0.00019475,0.00023051,-
 0.00042899,-0.04483475,0.16524608,-0.00372200,-0.00564251,-0.00565203,
 0.00122790,-0.00003292,-0.00120811,0.07994174,-0.24024463,-0.37038170,
 -0.00192687,0.00015507,0.00049537,-0.00114434,0.00116714,0.00116936,0.
 00043384,0.00023760,0.00007901,0.00022822,-0.00022681,0.00045700,0.000
 22028,-0.00035930,0.00014250,-0.07509797,0.24478278,0.37529401,0.00699
 228,0.00014055,0.00965212,-0.02144211,0.02595656,-0.00711156,-0.000352
 02,0.00043397,-0.00170295,-0.00140714,0.00023902,-0.00102720,-0.027561
 29,-0.00498315,-0.02044374,0.00021227,0.00018180,0.00022666,-0.0038010
 2,0.01086902,0.00157845,-0.00055201,0.00277505,0.00780767,0.00004915,0
 .00016425,-0.00021288,0.10004570,-0.00427677,-0.00569499,-0.02637337,0
 .03821441,-0.08531091,-0.00555335,-0.00055153,-0.00048264,0.00320733,0
 .00179989,0.00002450,0.00167586,-0.00365540,-0.04212302,-0.00581235,-0
 .00023276,-0.00035325,0.00015477,0.00264392,-0.00435991,0.00048023,0.0
 0567385,0.00259438,0.01111871,0.00000110,-0.00034650,0.00021882,-0.046
 73716,0.19616321,0.00799205,-0.02706735,-0.00036948,-0.00184000,-0.016
 96110,-0.03130529,-0.00181095,0.00183036,-0.00143397,-0.00040092,0.002
 70756,-0.00147147,-0.01220726,-0.00280042,-0.07545640,0.00018082,0.000
 29475,-0.00000481,0.00024560,0.00471915,-0.00037205,0.00232026,0.00090
 421,-0.00468064,-0.00016802,0.00043173,-0.00047362,0.04309371,0.016713
 28,0.31887347,-0.00010064,-0.00400716,-0.00077574,0.00204996,-0.002316
 86,0.00551335,-0.00044371,0.00058114,0.00065047,0.00034423,0.00090253,
 0.00014761,0.01792400,0.00660728,0.00155677,-0.00002120,-0.00003701,-0
 .00002570,0.00046880,-0.00046041,0.00182079,0.00063119,-0.00107977,-0.
 00484867,0.00003855,-0.00006143,0.00004335,-0.07816925,0.00697879,-0.0
 2587340,0.13440508,-0.00044580,0.00101708,0.00144289,-0.00683729,0.001
 37399,-0.01587137,0.00013227,-0.00021062,-0.00014428,-0.00007302,-0.00
 015469,-0.00003517,0.00381516,0.02007064,-0.00568664,0.00002489,0.0000
 4865,-0.00014856,0.00030510,0.00278654,-0.00041865,-0.00293692,-0.0010
 2256,-0.00431685,0.00002612,0.00010023,-0.00008538,0.01345198,-0.09058
 356,0.02618692,-0.00819884,0.11164941,0.00015686,-0.00804544,-0.012165
 24,-0.00127160,0.00381328,0.00003678,-0.00243756,0.00183762,0.00330081
 ,0.00180476,0.00304978,0.00210528,-0.00310168,0.00083465,-0.00880527,-
 0.00024609,-0.00045865,0.00009470,0.00148660,-0.00117656,0.00228580,-0
 .00198627,-0.00038158,-0.00337294,0.00019827,-0.00020447,-0.00006031,-
 0.01640968,0.00076079,-0.15211942,0.19852408,-0.00383774,1.16942332,-0
 .00042556,0.00233134,0.00075147,-0.00013324,0.00006356,-0.00117054,0.0
 0044215,-0.00036250,-0.00039738,-0.00022296,-0.00063411,-0.00018515,-0
 .00571902,-0.00278493,-0.00243181,0.00002056,0.00003758,0.00001433,-0.
 00027721,0.00022248,-0.00057527,-0.00027928,0.00019502,0.00148971,-0.0
 0003303,0.00002884,0.00000871,0.02598544,0.00014165,-0.01153188,-0.077
 12700,0.00073637,-0.17671766,0.05776915,-0.00003128,-0.00012440,-0.000
 45982,0.00184304,-0.00036970,0.00415402,-0.00004099,0.00005907,0.00005
 983,0.00004484,0.00003251,0.00000826,-0.00132988,-0.00580988,0.0015238
 7,-0.00001048,-0.00001743,0.00004471,0.00002363,-0.00081552,0.00006896
 ,0.00088091,0.00034680,0.00123025,-0.00000434,-0.00004196,0.00003013,-
 0.00249191,0.03047268,-0.00695909,0.00109174,-0.04507511,0.00380831,0.
 00002471,0.02134295,-0.00150334,0.00858883,0.00601005,0.00282734,-0.00
 451152,0.00208187,0.00212130,-0.00165166,-0.00205424,-0.00124656,-0.00
 272543,-0.00122101,0.00023527,-0.00173277,-0.00776181,0.00016077,0.000
 26601,-0.00001015,-0.00116898,0.00012185,-0.00191760,0.00015410,-0.001
 26593,0.00084844,-0.00014187,0.00009594,0.00013851,-0.01545060,0.00340
 926,-0.05118632,-0.17673291,0.00291484,-1.00072351,0.19074548,-0.00350
 942,1.05579576\\0.00001824,0.00001120,0.00000019,-0.00000630,-0.000010
 72,0.00001166,0.00000716,-0.00002837,0.00001229,-0.00000914,-0.0000055
 1,0.00001927,-0.00010627,-0.00001383,-0.00000110,0.00000559,0.00000139
 ,-0.00000942,-0.00000752,0.00001563,0.00000292,0.00000721,0.00000420,-
 0.00000118,0.00001648,-0.00002141,0.00001785,0.00027401,-0.00000289,-0
 .00006728,-0.00016789,0.00002179,0.00003820,-0.00003157,0.00002852,-0.
 00002342\\\@


 SIGN SEEN IN A RESTAURANT-
 WE RESERVE THE RIGHT TO SERVE REFUSE TO ANYONE.
 Job cpu time:  0 days  1 hours 26 minutes 54.2 seconds.
 File lengths (MBytes):  RWF=    119 Int=      0 D2E=      0 Chk=     14 Scr=      1
 Normal termination of Gaussian 03 at Sat Feb 16 05:19:14 2008.
