 Entering Gaussian System, Link 0=g09
 Input=input.com
 Output=/scratch/gridchem/567055/1Rb_b3_2_e.out
 Initial command:
 /opt/gaussian/g09/l1.exe "/scratch/gridchem/567055/Gau-16732.inp" -scrdir="/scratch/gridchem/567055/"
 Entering Link 1 = /opt/gaussian/g09/l1.exe PID=     16733.
  
 Copyright (c) 1988,1990,1992,1993,1995,1998,2003,2009,2013,
            Gaussian, Inc.  All Rights Reserved.
  
 This is part of the Gaussian(R) 09 program.  It is based on
 the Gaussian(R) 03 system (copyright 2003, Gaussian, Inc.),
 the Gaussian(R) 98 system (copyright 1998, Gaussian, Inc.),
 the Gaussian(R) 94 system (copyright 1995, Gaussian, Inc.),
 the Gaussian 92(TM) system (copyright 1992, Gaussian, Inc.),
 the Gaussian 90(TM) system (copyright 1990, Gaussian, Inc.),
 the Gaussian 88(TM) system (copyright 1988, Gaussian, Inc.),
 the Gaussian 86(TM) system (copyright 1986, Carnegie Mellon
 University), and the Gaussian 82(TM) system (copyright 1983,
 Carnegie Mellon University). Gaussian is a federally registered
 trademark of Gaussian, Inc.
  
 This software contains proprietary and confidential information,
 including trade secrets, belonging to Gaussian, Inc.
  
 This software is provided under written license and may be
 used, copied, transmitted, or stored only in accord with that
 written license.
  
 The following legend is applicable only to US Government
 contracts under FAR:
  
                    RESTRICTED RIGHTS LEGEND
  
 Use, reproduction and disclosure by the US Government is
 subject to restrictions as set forth in subparagraphs (a)
 and (c) of the Commercial Computer Software - Restricted
 Rights clause in FAR 52.227-19.
  
 Gaussian, Inc.
 340 Quinnipiac St., Bldg. 40, Wallingford CT 06492
  
  
 ---------------------------------------------------------------
 Warning -- This program may not be used in any manner that
 competes with the business of Gaussian, Inc. or will provide
 assistance to any competitor of Gaussian, Inc.  The licensee
 of this program is prohibited from giving any competitor of
 Gaussian, Inc. access to this program.  By using this program,
 the user acknowledges that Gaussian, Inc. is engaged in the
 business of creating and licensing software in the field of
 computational chemistry and represents and warrants to the
 licensee that it is not a competitor of Gaussian, Inc. and that
 it will not use this program in any manner prohibited above.
 ---------------------------------------------------------------
  

 Cite this work as:
 Gaussian 09, Revision D.01,
 M. J. Frisch, G. W. Trucks, H. B. Schlegel, G. E. Scuseria, 
 M. A. Robb, J. R. Cheeseman, G. Scalmani, V. Barone, B. Mennucci, 
 G. A. Petersson, H. Nakatsuji, M. Caricato, X. Li, H. P. Hratchian, 
 A. F. Izmaylov, J. Bloino, G. Zheng, J. L. Sonnenberg, M. Hada, 
 M. Ehara, K. Toyota, R. Fukuda, J. Hasegawa, M. Ishida, T. Nakajima, 
 Y. Honda, O. Kitao, H. Nakai, T. Vreven, J. A. Montgomery, Jr., 
 J. E. Peralta, F. Ogliaro, M. Bearpark, J. J. Heyd, E. Brothers, 
 K. N. Kudin, V. N. Staroverov, T. Keith, R. Kobayashi, J. Normand, 
 K. Raghavachari, A. Rendell, J. C. Burant, S. S. Iyengar, J. Tomasi, 
 M. Cossi, N. Rega, J. M. Millam, M. Klene, J. E. Knox, J. B. Cross, 
 V. Bakken, C. Adamo, J. Jaramillo, R. Gomperts, R. E. Stratmann, 
 O. Yazyev, A. J. Austin, R. Cammi, C. Pomelli, J. W. Ochterski, 
 R. L. Martin, K. Morokuma, V. G. Zakrzewski, G. A. Voth, 
 P. Salvador, J. J. Dannenberg, S. Dapprich, A. D. Daniels, 
 O. Farkas, J. B. Foresman, J. V. Ortiz, J. Cioslowski, 
 and D. J. Fox, Gaussian, Inc., Wallingford CT, 2013.
 
 ******************************************
 Gaussian 09:  ES64L-G09RevD.01 24-Apr-2013
                27-May-2015 
 ******************************************
 %nprocshared=16
 Will use up to   16 processors via shared memory.
 %mem=2000MW
 ------------------------------
 #p b3lyp/genecp counterpoise=2
 ------------------------------
 1/38=1,62=2/1;
 2/12=2,17=6,18=5,40=1/2;
 1/38=1,53=2,62=2,63=1/22;
 3/5=7,11=2,16=1,17=8,25=1,30=1,74=-5/1,2,3;
 4//1;
 5/5=2,38=5/2;
 6/7=2,8=2,9=2,10=2,28=1/1;
 1/53=2,62=2,63=1/22;
 3/5=7,6=11,11=2,16=1,17=8,25=1,30=1,74=-5,82=7/1,2,3;
 4//1;
 5/5=2,38=5/2;
 6/7=2,8=2,9=2,10=2,28=1/1;
 1/53=2,62=2,63=1/22(-4);
 99/5=1,9=1/99;
 Leave Link    1 at Wed May 27 12:59:58 2015, MaxMem=  2097152000 cpu:         0.3
 (Enter /opt/gaussian/g09/l101.exe)
 ----
 BSSE
 ----
 Symbolic Z-matrix:
 Charge =  0 Multiplicity = 1 in supermolecule
 Charge =  1 Multiplicity = 1 in fragment      1.
 Charge = -1 Multiplicity = 1 in fragment      2.
 C(Fragment=1)        -1.94278   3.17695   1.09506 
 H(Fragment=1)        -2.34997   4.00494   1.70367 
 H(Fragment=1)        -2.78113   2.50518   0.88004 
 C(Fragment=1)         0.14405   3.18094   2.42174 
 H(Fragment=1)         0.49604   3.89784   1.6785 
 H(Fragment=1)        -0.20195   3.78315   3.28083 
 C(Fragment=1)         1.33429   2.332     2.8909 
 H(Fragment=1)         1.97644   2.98146   3.51282 
 H(Fragment=1)         0.96451   1.53985   3.55262 
 C(Fragment=1)         2.9514    2.59319   1.03465 
 H(Fragment=1)         2.49424   3.58489   1.02226 
 H(Fragment=1)         3.93124   2.72204   1.52287 
 C(Fragment=1)         1.43946   3.3887   -1.64711 
 H(Fragment=1)         1.46531   4.09253  -0.80753 
 H(Fragment=1)         2.05868   3.84726  -2.44025 
 N(Fragment=1)        -0.94841   2.79114  -1.17165 
 H(Fragment=1)        -1.69921   2.30364  -1.64958 
 N(Fragment=1)        -0.93428   2.39181   1.82389 
 H(Fragment=1)        -1.40712   1.88398   2.56547 
 N(Fragment=1)         2.07269   1.69209   1.79669 
 H(Fragment=1)         2.63523   0.94168   2.18287 
 N(Fragment=1)         1.95469   2.10437  -1.19689 
 H(Fragment=1)         2.01101   1.44468  -1.97456 
 C(Fragment=1)         3.17985   2.14234  -0.41907 
 H(Fragment=1)         3.6084    1.13369  -0.41693 
 H(Fragment=1)         3.95532   2.80503  -0.84949 
 C(Fragment=1)         0.        3.2869   -2.17228 
 H(Fragment=1)        -0.03067   2.59005  -3.01153 
 H(Fragment=1)        -0.28649   4.27635  -2.57079 
 C(Fragment=1)        -1.44383   3.78038  -0.22821 
 H(Fragment=1)        -2.26613   4.39723  -0.63311 
 H(Fragment=1)        -0.63364   4.48331  -0.01524 
 N(Fragment=2)        -1.16587   0.19088  -3.16242 
 N(Fragment=2)         0.        0.       -3.17896 
 N(Fragment=2)         1.16587  -0.19088  -3.16242 
 C(Fragment=1)        -1.33429  -2.332     2.8909 
 H(Fragment=1)        -1.97644  -2.98146   3.51282 
 H(Fragment=1)        -0.96451  -1.53985   3.55262 
 C(Fragment=1)        -2.9514   -2.59319   1.03465 
 H(Fragment=1)        -2.49424  -3.58489   1.02226 
 H(Fragment=1)        -3.93124  -2.72204   1.52287 
 C(Fragment=1)        -3.17985  -2.14234  -0.41907 
 H(Fragment=1)        -3.95532  -2.80503  -0.84949 
 H(Fragment=1)        -3.6084   -1.13369  -0.41693 
 C(Fragment=1)        -1.43946  -3.3887   -1.64711 
 H(Fragment=1)        -1.46531  -4.09253  -0.80753 
 H(Fragment=1)        -2.05868  -3.84726  -2.44025 
 C(Fragment=1)         1.44383  -3.78038  -0.22821 
 H(Fragment=1)         0.63364  -4.48331  -0.01524 
 H(Fragment=1)         2.26613  -4.39723  -0.63311 
 N(Fragment=1)         0.93428  -2.39181   1.82389 
 H(Fragment=1)         1.40712  -1.88398   2.56547 
 N(Fragment=1)        -2.07269  -1.69209   1.79669 
 H(Fragment=1)        -2.63523  -0.94168   2.18287 
 N(Fragment=1)        -1.95469  -2.10437  -1.19689 
 H(Fragment=1)        -2.01101  -1.44468  -1.97456 
 N(Fragment=1)         0.94841  -2.79114  -1.17165 
 H(Fragment=1)         1.69921  -2.30364  -1.64958 
 C(Fragment=1)         0.       -3.2869   -2.17228 
 H(Fragment=1)         0.03067  -2.59005  -3.01153 
 H(Fragment=1)         0.28649  -4.27635  -2.57079 
 C(Fragment=1)         1.94278  -3.17695   1.09506 
 H(Fragment=1)         2.78113  -2.50518   0.88004 
 H(Fragment=1)         2.34997  -4.00494   1.70367 
 C(Fragment=1)        -0.14405  -3.18094   2.42174 
 H(Fragment=1)         0.20195  -3.78315   3.28083 
 H(Fragment=1)        -0.49604  -3.89784   1.6785 
 Rb(Fragment=1)        0.        0.       -0.048 
 
 NAtoms=     68 NQM=       68 NQMF=       0 NMMI=      0 NMMIF=      0
                NMic=       0 NMicF=      0.
                    Isotopes and Nuclear Properties:
 (Nuclear quadrupole moments (NQMom) in fm**2, nuclear magnetic moments (NMagM)
  in nuclear magnetons)

  Atom         1           2           3           4           5           6           7           8           9          10
 IAtWgt=          12           1           1          12           1           1          12           1           1          12
 AtmWgt=  12.0000000   1.0078250   1.0078250  12.0000000   1.0078250   1.0078250  12.0000000   1.0078250   1.0078250  12.0000000
 NucSpn=           0           1           1           0           1           1           0           1           1           0
 AtZEff=   0.0000000   0.0000000   0.0000000   0.0000000   0.0000000   0.0000000   0.0000000   0.0000000   0.0000000   0.0000000
 NQMom=    0.0000000   0.0000000   0.0000000   0.0000000   0.0000000   0.0000000   0.0000000   0.0000000   0.0000000   0.0000000
 NMagM=    0.0000000   2.7928460   2.7928460   0.0000000   2.7928460   2.7928460   0.0000000   2.7928460   2.7928460   0.0000000
 AtZNuc=   6.0000000   1.0000000   1.0000000   6.0000000   1.0000000   1.0000000   6.0000000   1.0000000   1.0000000   6.0000000

  Atom        11          12          13          14          15          16          17          18          19          20
 IAtWgt=           1           1          12           1           1          14           1          14           1          14
 AtmWgt=   1.0078250   1.0078250  12.0000000   1.0078250   1.0078250  14.0030740   1.0078250  14.0030740   1.0078250  14.0030740
 NucSpn=           1           1           0           1           1           2           1           2           1           2
 AtZEff=   0.0000000   0.0000000   0.0000000   0.0000000   0.0000000   0.0000000   0.0000000   0.0000000   0.0000000   0.0000000
 NQMom=    0.0000000   0.0000000   0.0000000   0.0000000   0.0000000   2.0440000   0.0000000   2.0440000   0.0000000   2.0440000
 NMagM=    2.7928460   2.7928460   0.0000000   2.7928460   2.7928460   0.4037610   2.7928460   0.4037610   2.7928460   0.4037610
 AtZNuc=   1.0000000   1.0000000   6.0000000   1.0000000   1.0000000   7.0000000   1.0000000   7.0000000   1.0000000   7.0000000

  Atom        21          22          23          24          25          26          27          28          29          30
 IAtWgt=           1          14           1          12           1           1          12           1           1          12
 AtmWgt=   1.0078250  14.0030740   1.0078250  12.0000000   1.0078250   1.0078250  12.0000000   1.0078250   1.0078250  12.0000000
 NucSpn=           1           2           1           0           1           1           0           1           1           0
 AtZEff=   0.0000000   0.0000000   0.0000000   0.0000000   0.0000000   0.0000000   0.0000000   0.0000000   0.0000000   0.0000000
 NQMom=    0.0000000   2.0440000   0.0000000   0.0000000   0.0000000   0.0000000   0.0000000   0.0000000   0.0000000   0.0000000
 NMagM=    2.7928460   0.4037610   2.7928460   0.0000000   2.7928460   2.7928460   0.0000000   2.7928460   2.7928460   0.0000000
 AtZNuc=   1.0000000   7.0000000   1.0000000   6.0000000   1.0000000   1.0000000   6.0000000   1.0000000   1.0000000   6.0000000

  Atom        31          32          33          34          35          36          37          38          39          40
 IAtWgt=           1           1          14          14          14          12           1           1          12           1
 AtmWgt=   1.0078250   1.0078250  14.0030740  14.0030740  14.0030740  12.0000000   1.0078250   1.0078250  12.0000000   1.0078250
 NucSpn=           1           1           2           2           2           0           1           1           0           1
 AtZEff=   0.0000000   0.0000000   0.0000000   0.0000000   0.0000000   0.0000000   0.0000000   0.0000000   0.0000000   0.0000000
 NQMom=    0.0000000   0.0000000   2.0440000   2.0440000   2.0440000   0.0000000   0.0000000   0.0000000   0.0000000   0.0000000
 NMagM=    2.7928460   2.7928460   0.4037610   0.4037610   0.4037610   0.0000000   2.7928460   2.7928460   0.0000000   2.7928460
 AtZNuc=   1.0000000   1.0000000   7.0000000   7.0000000   7.0000000   6.0000000   1.0000000   1.0000000   6.0000000   1.0000000

  Atom        41          42          43          44          45          46          47          48          49          50
 IAtWgt=           1          12           1           1          12           1           1          12           1           1
 AtmWgt=   1.0078250  12.0000000   1.0078250   1.0078250  12.0000000   1.0078250   1.0078250  12.0000000   1.0078250   1.0078250
 NucSpn=           1           0           1           1           0           1           1           0           1           1
 AtZEff=   0.0000000   0.0000000   0.0000000   0.0000000   0.0000000   0.0000000   0.0000000   0.0000000   0.0000000   0.0000000
 NQMom=    0.0000000   0.0000000   0.0000000   0.0000000   0.0000000   0.0000000   0.0000000   0.0000000   0.0000000   0.0000000
 NMagM=    2.7928460   0.0000000   2.7928460   2.7928460   0.0000000   2.7928460   2.7928460   0.0000000   2.7928460   2.7928460
 AtZNuc=   1.0000000   6.0000000   1.0000000   1.0000000   6.0000000   1.0000000   1.0000000   6.0000000   1.0000000   1.0000000

  Atom        51          52          53          54          55          56          57          58          59          60
 IAtWgt=          14           1          14           1          14           1          14           1          12           1
 AtmWgt=  14.0030740   1.0078250  14.0030740   1.0078250  14.0030740   1.0078250  14.0030740   1.0078250  12.0000000   1.0078250
 NucSpn=           2           1           2           1           2           1           2           1           0           1
 AtZEff=   0.0000000   0.0000000   0.0000000   0.0000000   0.0000000   0.0000000   0.0000000   0.0000000   0.0000000   0.0000000
 NQMom=    2.0440000   0.0000000   2.0440000   0.0000000   2.0440000   0.0000000   2.0440000   0.0000000   0.0000000   0.0000000
 NMagM=    0.4037610   2.7928460   0.4037610   2.7928460   0.4037610   2.7928460   0.4037610   2.7928460   0.0000000   2.7928460
 AtZNuc=   7.0000000   1.0000000   7.0000000   1.0000000   7.0000000   1.0000000   7.0000000   1.0000000   6.0000000   1.0000000

  Atom        61          62          63          64          65          66          67          68
 IAtWgt=           1          12           1           1          12           1           1          85
 AtmWgt=   1.0078250  12.0000000   1.0078250   1.0078250  12.0000000   1.0078250   1.0078250  84.9117000
 NucSpn=           1           0           1           1           0           1           1           5
 AtZEff=   0.0000000   0.0000000   0.0000000   0.0000000   0.0000000   0.0000000   0.0000000   0.0000000
 NQMom=    0.0000000   0.0000000   0.0000000   0.0000000   0.0000000   0.0000000   0.0000000  27.6000000
 NMagM=    2.7928460   0.0000000   2.7928460   2.7928460   0.0000000   2.7928460   2.7928460   1.3530300
 AtZNuc=   1.0000000   6.0000000   1.0000000   1.0000000   6.0000000   1.0000000   1.0000000  37.0000000
 Leave Link  101 at Wed May 27 12:59:58 2015, MaxMem=  2097152000 cpu:         1.2
 (Enter /opt/gaussian/g09/l202.exe)
 Stoichiometry    C16H40N11Rb
 Framework group  C2[C2(RbN),X(C16H40N10)]
 Deg. of freedom    99
 Full point group                 C2      NOp   2
 Largest Abelian subgroup         C2      NOp   2
 Largest concise Abelian subgroup C2      NOp   2
                         Standard orientation:                         
 ---------------------------------------------------------------------
 Center     Atomic      Atomic             Coordinates (Angstroms)
 Number     Number       Type             X           Y           Z
 ---------------------------------------------------------------------
      1          6           0        1.942784    3.176953   -1.095057
      2          1           0        2.349972    4.004941   -1.703674
      3          1           0        2.781132    2.505177   -0.880035
      4          6           0       -0.144051    3.180940   -2.421740
      5          1           0       -0.496038    3.897836   -1.678497
      6          1           0        0.201954    3.783152   -3.280832
      7          6           0       -1.334293    2.331999   -2.890897
      8          1           0       -1.976443    2.981456   -3.512817
      9          1           0       -0.964507    1.539845   -3.552619
     10          6           0       -2.951404    2.593187   -1.034652
     11          1           0       -2.494239    3.584886   -1.022258
     12          1           0       -3.931241    2.722035   -1.522865
     13          6           0       -1.439462    3.388701    1.647111
     14          1           0       -1.465314    4.092534    0.807532
     15          1           0       -2.058679    3.847258    2.440248
     16          7           0        0.948410    2.791135    1.171647
     17          1           0        1.699213    2.303637    1.649581
     18          7           0        0.934276    2.391809   -1.823887
     19          1           0        1.407118    1.883977   -2.565474
     20          7           0       -2.072689    1.692091   -1.796693
     21          1           0       -2.635234    0.941683   -2.182873
     22          7           0       -1.954686    2.104372    1.196891
     23          1           0       -2.011012    1.444683    1.974561
     24          6           0       -3.179847    2.142342    0.419065
     25          1           0       -3.608401    1.133685    0.416927
     26          1           0       -3.955316    2.805029    0.849487
     27          6           0        0.000000    3.286900    2.172280
     28          1           0        0.030668    2.590049    3.011526
     29          1           0        0.286494    4.276351    2.570794
     30          6           0        1.443834    3.780377    0.228212
     31          1           0        2.266127    4.397233    0.633108
     32          1           0        0.633643    4.483312    0.015238
     33          7           0        1.165873    0.190878    3.162420
     34          7           0        0.000000    0.000000    3.178957
     35          7           0       -1.165873   -0.190878    3.162420
     36          6           0        1.334293   -2.331999   -2.890897
     37          1           0        1.976443   -2.981456   -3.512817
     38          1           0        0.964507   -1.539845   -3.552619
     39          6           0        2.951404   -2.593187   -1.034652
     40          1           0        2.494239   -3.584886   -1.022258
     41          1           0        3.931241   -2.722035   -1.522865
     42          6           0        3.179847   -2.142342    0.419065
     43          1           0        3.955316   -2.805029    0.849487
     44          1           0        3.608401   -1.133685    0.416927
     45          6           0        1.439462   -3.388701    1.647111
     46          1           0        1.465314   -4.092534    0.807532
     47          1           0        2.058679   -3.847258    2.440248
     48          6           0       -1.443834   -3.780377    0.228212
     49          1           0       -0.633643   -4.483312    0.015238
     50          1           0       -2.266127   -4.397233    0.633108
     51          7           0       -0.934276   -2.391809   -1.823887
     52          1           0       -1.407118   -1.883977   -2.565474
     53          7           0        2.072689   -1.692091   -1.796693
     54          1           0        2.635234   -0.941683   -2.182873
     55          7           0        1.954686   -2.104372    1.196891
     56          1           0        2.011012   -1.444683    1.974561
     57          7           0       -0.948410   -2.791135    1.171647
     58          1           0       -1.699213   -2.303637    1.649581
     59          6           0        0.000000   -3.286900    2.172280
     60          1           0       -0.030668   -2.590049    3.011526
     61          1           0       -0.286494   -4.276351    2.570794
     62          6           0       -1.942784   -3.176953   -1.095057
     63          1           0       -2.781132   -2.505177   -0.880035
     64          1           0       -2.349972   -4.004941   -1.703674
     65          6           0        0.144051   -3.180940   -2.421740
     66          1           0       -0.201954   -3.783152   -3.280832
     67          1           0        0.496038   -3.897836   -1.678497
     68         37           0        0.000000    0.000000    0.048001
 ---------------------------------------------------------------------
 Rotational constants (GHZ):      0.1989548      0.1280285      0.1179530
 Leave Link  202 at Wed May 27 12:59:58 2015, MaxMem=  2097152000 cpu:         0.1
 (Enter /opt/gaussian/g09/l122.exe)
 Counterpoise: doing full dimer calculation.
 Leave Link  122 at Wed May 27 12:59:58 2015, MaxMem=  2097152000 cpu:         0.0
 (Enter /opt/gaussian/g09/l301.exe)
 General basis read from cards:  (5D, 7F)
 Centers:       1      4      7     10     13     24     27     30     36     39
 Centers:      42     45     48     59     62     65      2      3      5      6
 Centers:       8      9     11     12     14     15     17     19     21     23
 Centers:      25     26     28     29     31     32     37     38     40     41
 Centers:      43     44     46     47     49     50     52     54     56     58
 Centers:      60     61     63     64     66     67     16     18     20     22
 Centers:      33     34     35     51     53     55     57
 6-311G(d,p)
 ****
 Centers:      68
 S 3 1.00
     Exponent=  4.7274610000D+00 Coefficients=  2.8132900000D-01
     Exponent=  2.9308250000D+00 Coefficients= -6.7489200000D-01
     Exponent=  6.0184900000D-01 Coefficients=  4.5877900000D-01
 S 1 1.00
     Exponent=  4.6624400000D-01 Coefficients=  1.0000000000D+00
 S 1 1.00
     Exponent=  2.4646300000D-01 Coefficients=  1.0000000000D+00
 S 1 1.00
     Exponent=  5.3379000000D-02 Coefficients=  1.0000000000D+00
 S 1 1.00
     Exponent=  2.1018000000D-02 Coefficients=  1.0000000000D+00
 P 3 1.00
     Exponent=  5.6084700000D+00 Coefficients=  4.9805000000D-02
     Exponent=  3.4527270000D+00 Coefficients= -1.6644100000D-01
     Exponent=  7.5437400000D-01 Coefficients=  4.3483400000D-01
 P 1 1.00
     Exponent=  3.2797400000D-01 Coefficients=  1.0000000000D+00
 P 1 1.00
     Exponent=  1.4179700000D-01 Coefficients=  1.0000000000D+00
 P 1 1.00
     Exponent=  2.0506000000D-02 Coefficients=  1.0000000000D+00
 ****
 ======================================================================================================
                                       Pseudopotential Parameters
 ======================================================================================================
  Center     Atomic      Valence      Angular      Power
  Number     Number     Electrons     Momentum     of R      Exponent        Coefficient   SO-Coeffient
 ======================================================================================================
    1          6
                                   No pseudopotential on this center.
    2          1
                                   No pseudopotential on this center.
    3          1
                                   No pseudopotential on this center.
    4          6
                                   No pseudopotential on this center.
    5          1
                                   No pseudopotential on this center.
    6          1
                                   No pseudopotential on this center.
    7          6
                                   No pseudopotential on this center.
    8          1
                                   No pseudopotential on this center.
    9          1
                                   No pseudopotential on this center.
   10          6
                                   No pseudopotential on this center.
   11          1
                                   No pseudopotential on this center.
   12          1
                                   No pseudopotential on this center.
   13          6
                                   No pseudopotential on this center.
   14          1
                                   No pseudopotential on this center.
   15          1
                                   No pseudopotential on this center.
   16          7
                                   No pseudopotential on this center.
   17          1
                                   No pseudopotential on this center.
   18          7
                                   No pseudopotential on this center.
   19          1
                                   No pseudopotential on this center.
   20          7
                                   No pseudopotential on this center.
   21          1
                                   No pseudopotential on this center.
   22          7
                                   No pseudopotential on this center.
   23          1
                                   No pseudopotential on this center.
   24          6
                                   No pseudopotential on this center.
   25          1
                                   No pseudopotential on this center.
   26          1
                                   No pseudopotential on this center.
   27          6
                                   No pseudopotential on this center.
   28          1
                                   No pseudopotential on this center.
   29          1
                                   No pseudopotential on this center.
   30          6
                                   No pseudopotential on this center.
   31          1
                                   No pseudopotential on this center.
   32          1
                                   No pseudopotential on this center.
   33          7
                                   No pseudopotential on this center.
   34          7
                                   No pseudopotential on this center.
   35          7
                                   No pseudopotential on this center.
   36          6
                                   No pseudopotential on this center.
   37          1
                                   No pseudopotential on this center.
   38          1
                                   No pseudopotential on this center.
   39          6
                                   No pseudopotential on this center.
   40          1
                                   No pseudopotential on this center.
   41          1
                                   No pseudopotential on this center.
   42          6
                                   No pseudopotential on this center.
   43          1
                                   No pseudopotential on this center.
   44          1
                                   No pseudopotential on this center.
   45          6
                                   No pseudopotential on this center.
   46          1
                                   No pseudopotential on this center.
   47          1
                                   No pseudopotential on this center.
   48          6
                                   No pseudopotential on this center.
   49          1
                                   No pseudopotential on this center.
   50          1
                                   No pseudopotential on this center.
   51          7
                                   No pseudopotential on this center.
   52          1
                                   No pseudopotential on this center.
   53          7
                                   No pseudopotential on this center.
   54          1
                                   No pseudopotential on this center.
   55          7
                                   No pseudopotential on this center.
   56          1
                                   No pseudopotential on this center.
   57          7
                                   No pseudopotential on this center.
   58          1
                                   No pseudopotential on this center.
   59          6
                                   No pseudopotential on this center.
   60          1
                                   No pseudopotential on this center.
   61          1
                                   No pseudopotential on this center.
   62          6
                                   No pseudopotential on this center.
   63          1
                                   No pseudopotential on this center.
   64          1
                                   No pseudopotential on this center.
   65          6
                                   No pseudopotential on this center.
   66          1
                                   No pseudopotential on this center.
   67          1
                                   No pseudopotential on this center.
   68         37            9
                                      G and up 
                                                     2        1.0000000        0.00000000    0.00000000
                                      S - G
                                                     2        5.0365518       89.50019822    0.00000000
                                                     2        1.9708496        0.49376198    0.00000000
                                      P - G
                                                     2        4.2583412       58.56897492    0.00000000
                                                     2        1.4707096        0.43179108    0.00000000
                                      D - G
                                                     2        3.0231277       26.22489809    0.00000000
                                                     2        0.6503835        0.96283950    0.00000000
                                      F - G
                                                     2        3.8431147      -12.31690065    0.00000000
 ======================================================================================================
 Ernie: Thresh=  0.10000D-02 Tol=  0.10000D-05 Strict=F.
 There are   387 symmetry adapted cartesian basis functions of A   symmetry.
 There are   383 symmetry adapted cartesian basis functions of B   symmetry.
 There are   373 symmetry adapted basis functions of A   symmetry.
 There are   370 symmetry adapted basis functions of B   symmetry.
   743 basis functions,  1209 primitive gaussians,   770 cartesian basis functions
   111 alpha electrons      111 beta electrons
       nuclear repulsion energy      3114.5500321531 Hartrees.
 IExCor=  402 DFT=T Ex+Corr=B3LYP ExCW=0 ScaHFX=  0.200000
 ScaDFX=  0.800000  0.720000  1.000000  0.810000 ScalE2=  1.000000  1.000000
 IRadAn=      0 IRanWt=     -1 IRanGd=            0 ICorTp=0 IEmpDi=  4
 NAtoms=   68 NActive=   68 NUniq=   35 SFac= 3.77D+00 NAtFMM=   60 NAOKFM=T Big=F
 Integral buffers will be    131072 words long.
 Raffenetti 2 integral format.
 Two-electron integral symmetry is turned on.
 Leave Link  301 at Wed May 27 12:59:58 2015, MaxMem=  2097152000 cpu:         0.9
 (Enter /opt/gaussian/g09/l302.exe)
 NPDir=0 NMtPBC=     1 NCelOv=     1 NCel=       1 NClECP=     1 NCelD=      1
         NCelK=      1 NCelE2=     1 NClLst=     1 CellRange=     0.0.
 One-electron integrals computed using PRISM.
 One-electron integral symmetry used in STVInt
   2 Symmetry operations used in ECPInt.
 ECPInt:  NShTT=   46360 NPrTT=  167365 LenC2=   37713 LenP2D=   84534.
 LDataN:  DoStor=T MaxTD1= 6 Len=  172
 NBasis=   743 RedAO= T EigKep=  1.02D-03  NBF=   373   370
 NBsUse=   743 1.00D-06 EigRej= -1.00D+00 NBFU=   373   370
 Precomputing XC quadrature grid using
 IXCGrd= 4 IRadAn=           0 IRanWt=          -1 IRanGd=           0 AccXCQ= 0.00D+00.
 Defaulting to unpruned grid for atomic number  37.
 Generated NRdTot=       0 NPtTot=           0 NUsed=           0 NTot=          32
 NSgBfM=   770   770   770   770   770 MxSgAt=    68 MxSgA2=    68.
 Leave Link  302 at Wed May 27 12:59:59 2015, MaxMem=  2097152000 cpu:        18.1
 (Enter /opt/gaussian/g09/l303.exe)
 DipDrv:  MaxL=1.
 Leave Link  303 at Wed May 27 12:59:59 2015, MaxMem=  2097152000 cpu:         1.8
 (Enter /opt/gaussian/g09/l401.exe)
 ExpMin= 2.05D-02 ExpMax= 6.29D+03 ExpMxC= 9.49D+02 IAcc=3 IRadAn=         5 AccDes= 0.00D+00
 Harris functional with IExCor=  402 and IRadAn=       5 diagonalized for initial guess.
 HarFok:  IExCor=  402 AccDes= 0.00D+00 IRadAn=         5 IDoV= 1 UseB2=F ITyADJ=14
 ICtDFT=  3500011 ScaDFX=  1.000000  1.000000  1.000000  1.000000
 Defaulting to unpruned grid for atomic number  37.
 Defaulting to unpruned grid for atomic number  37.
 Defaulting to unpruned grid for atomic number  37.
 Defaulting to unpruned grid for atomic number  37.
 Defaulting to unpruned grid for atomic number  37.
 Defaulting to unpruned grid for atomic number  37.
 Defaulting to unpruned grid for atomic number  37.
 Defaulting to unpruned grid for atomic number  37.
 Defaulting to unpruned grid for atomic number  37.
 Defaulting to unpruned grid for atomic number  37.
 Defaulting to unpruned grid for atomic number  37.
 Defaulting to unpruned grid for atomic number  37.
 Defaulting to unpruned grid for atomic number  37.
 Defaulting to unpruned grid for atomic number  37.
 Defaulting to unpruned grid for atomic number  37.
 Defaulting to unpruned grid for atomic number  37.
 FoFCou: FMM=F IPFlag=           0 FMFlag=      100000 FMFlg1=        2000
         NFxFlg=           0 DoJE=T BraDBF=F KetDBF=T FulRan=T
         wScrn=  0.000000 ICntrl=     500 IOpCl=  0 I1Cent=   200000004 NGrid=           0
         NMat0=    1 NMatS0=      1 NMatT0=    0 NMatD0=    1 NMtDS0=    0 NMtDT0=    0
 Petite list used in FoFCou.
 Harris En= -1260.23792337167    
 JPrj=0 DoOrth=F DoCkMO=F.
 Initial guess orbital symmetries:
       Occupied  (A) (B) (A) (B) (A) (B) (A) (B) (A) (A) (B) (B)
                 (A) (B) (A) (A) (B) (B) (A) (B) (A) (B) (A) (B)
                 (A) (B) (A) (A) (A) (B) (A) (B) (A) (B) (A) (B)
                 (A) (B) (A) (B) (A) (B) (B) (A) (A) (B) (B) (A)
                 (B) (A) (A) (B) (B) (A) (A) (B) (B) (A) (B) (A)
                 (B) (A) (B) (A) (B) (A) (A) (B) (B) (A) (A) (B)
                 (B) (A) (B) (A) (B) (A) (B) (A) (B) (A) (B) (A)
                 (B) (A) (B) (A) (B) (A) (B) (A) (A) (B) (B) (A)
                 (B) (A) (B) (A) (B) (A) (B) (B) (A) (A) (B) (A)
                 (B) (A) (B)
       Virtual   (A) (B) (B) (A) (B) (A) (A) (A) (B) (A) (B) (B)
                 (B) (A) (B) (A) (A) (B) (A) (A) (B) (A) (B) (A)
                 (B) (B) (A) (A) (B) (A) (B) (A) (B) (A) (B) (A)
                 (B) (B) (B) (A) (B) (A) (A) (B) (A) (B) (A) (B)
                 (A) (B) (A) (B) (A) (A) (A) (B) (B) (A) (A) (B)
                 (A) (B) (A) (B) (A) (B) (B) (A) (B) (A) (B) (A)
                 (B) (A) (A) (B) (A) (B) (B) (B) (A) (A) (B) (A)
                 (A) (B) (B) (B) (A) (A) (B) (B) (A) (B) (A) (A)
                 (B) (A) (B) (B) (A) (B) (A) (B) (A) (B) (A) (B)
                 (A) (B) (A) (A) (B) (B) (B) (A) (A) (B) (A) (A)
                 (B) (A) (B) (A) (B) (B) (A) (A) (B) (B) (A) (B)
                 (A) (A) (A) (B) (A) (B) (B) (B) (A) (A) (B) (B)
                 (A) (B) (A) (A) (A) (B) (B) (A) (A) (B) (B) (B)
                 (A) (A) (B) (B) (B) (A) (A) (A) (B) (A) (A) (B)
                 (B) (B) (A) (A) (B) (B) (A) (A) (B) (A) (B) (A)
                 (B) (A) (B) (A) (A) (B) (B) (B) (A) (A) (B) (A)
                 (B) (A) (B) (A) (B) (A) (B) (A) (B) (B) (A) (A)
                 (A) (B) (B) (A) (B) (B) (A) (B) (A) (B) (A) (B)
                 (A) (B) (A) (B) (A) (B) (A) (B) (A) (B) (A) (A)
                 (B) (A) (B) (B) (A) (B) (A) (A) (B) (A) (B) (A)
                 (B) (B) (B) (A) (B) (A) (A) (B) (A) (A) (B) (B)
                 (A) (A) (B) (B) (A) (A) (B) (A) (B) (B) (A) (A)
                 (B) (A) (B) (A) (B) (B) (A) (A) (B) (A) (B) (B)
                 (A) (A) (B) (A) (B) (A) (B) (B) (A) (A) (A) (B)
                 (B) (B) (A) (A) (B) (B) (A) (B) (A) (A) (B) (A)
                 (B) (B) (A) (A) (B) (B) (A) (B) (A) (B) (A) (B)
                 (A) (B) (A) (B) (A) (B) (A) (B) (A) (B) (A) (B)
                 (A) (B) (A) (A) (B) (B) (A) (A) (B) (B) (A) (B)
                 (A) (A) (B) (B) (A) (A) (B) (A) (B) (A) (B) (A)
                 (B) (A) (B) (A) (B) (A) (B) (A) (B) (B) (A) (A)
                 (B) (A) (B) (B) (A) (B) (A) (B) (B) (A) (A) (B)
                 (B) (A) (A) (A) (A) (B) (B) (A) (B) (A) (B) (A)
                 (B) (B) (A) (B) (A) (B) (A) (B) (A) (B) (A) (A)
                 (B) (B) (A) (B) (A) (B) (A) (A) (B) (A) (B) (A)
                 (B) (A) (B) (A) (B) (A) (A) (B) (A) (B) (B) (A)
                 (A) (B) (B) (A) (B) (A) (B) (A) (B) (A) (B) (B)
                 (A) (B) (A) (B) (A) (B) (B) (A) (A) (A) (B) (A)
                 (A) (B) (B) (A) (B) (A) (B) (A) (B) (B) (A) (A)
                 (B) (A) (A) (B) (B) (A) (A) (B) (B) (A) (B) (A)
                 (A) (B) (B) (A) (B) (A) (B) (A) (A) (B) (B) (A)
                 (B) (A) (B) (A) (B) (A) (B) (B) (A) (A) (A) (B)
                 (B) (B) (A) (A) (B) (B) (A) (A) (B) (B) (A) (A)
                 (B) (A) (B) (A) (B) (A) (B) (B) (A) (B) (A) (B)
                 (A) (A) (B) (B) (A) (B) (A) (B) (A) (B) (A) (B)
                 (A) (B) (A) (A) (B) (B) (A) (A) (B) (B) (A) (A)
                 (B) (A) (B) (A) (A) (A) (B) (B) (A) (B) (B) (A)
                 (A) (B) (A) (B) (A) (B) (A) (B) (A) (B) (A) (B)
                 (A) (B) (A) (B) (B) (A) (B) (B) (A) (A) (B) (B)
                 (A) (A) (B) (A) (B) (A) (B) (A) (B) (A) (B) (A)
                 (B) (A) (B) (A) (A) (B) (B) (A) (A) (B) (B) (A)
                 (B) (A) (B) (B) (A) (A) (B) (B) (A) (A) (B) (A)
                 (B) (B) (A) (A) (B) (B) (A) (A) (B) (A) (B) (A)
                 (B) (A) (B) (A) (A) (B) (B) (A)
 The electronic state of the initial guess is 1-A.
 Leave Link  401 at Wed May 27 13:00:04 2015, MaxMem=  2097152000 cpu:        72.6
 (Enter /opt/gaussian/g09/l502.exe)
 Closed shell SCF:
 Using DIIS extrapolation, IDIIS=  1040.
 Integral symmetry usage will be decided dynamically.
 IVT=     1816424 IEndB=     1816424 NGot=  2097152000 MDV=  2095945887
 LenX=  2095945887 LenY=  2095352217
 Requested convergence on RMS density matrix=1.00D-08 within 128 cycles.
 Requested convergence on MAX density matrix=1.00D-06.
 Requested convergence on             energy=1.00D-06.
 No special actions if energy rises.
 Fock matrices will be formed incrementally for  20 cycles.

 Cycle   1  Pass 1  IDiag  1:
 FoFJK:  IHMeth= 1 ICntrl=       0 DoSepK=F KAlg= 0 I1Cent=   0 FoldK=F
 IRaf= 680000000 NMat=   1 IRICut=       1 DoRegI=T DoRafI=F ISym2E= 1.
 FoFCou: FMM=F IPFlag=           0 FMFlag=      100000 FMFlg1=        2000
         NFxFlg=           0 DoJE=F BraDBF=F KetDBF=F FulRan=T
         wScrn=  0.000000 ICntrl=       0 IOpCl=  0 I1Cent=           0 NGrid=           0
         NMat0=    1 NMatS0=      1 NMatT0=    0 NMatD0=    1 NMtDS0=    0 NMtDT0=    0
 Petite list used in FoFCou.
 Defaulting to unpruned grid for atomic number  37.
 Defaulting to unpruned grid for atomic number  37.
 Defaulting to unpruned grid for atomic number  37.
 Defaulting to unpruned grid for atomic number  37.
 Defaulting to unpruned grid for atomic number  37.
 Defaulting to unpruned grid for atomic number  37.
 Defaulting to unpruned grid for atomic number  37.
 Defaulting to unpruned grid for atomic number  37.
 Defaulting to unpruned grid for atomic number  37.
 Defaulting to unpruned grid for atomic number  37.
 Defaulting to unpruned grid for atomic number  37.
 Defaulting to unpruned grid for atomic number  37.
 Defaulting to unpruned grid for atomic number  37.
 Defaulting to unpruned grid for atomic number  37.
 Defaulting to unpruned grid for atomic number  37.
 Defaulting to unpruned grid for atomic number  37.
 E= -1259.63406190608    
 DIIS: error= 2.69D-02 at cycle   1 NSaved=   1.
 NSaved= 1 IEnMin= 1 EnMin= -1259.63406190608     IErMin= 1 ErrMin= 2.69D-02
 ErrMax= 2.69D-02  0.00D+00 EMaxC= 1.00D-01 BMatC= 9.24D-01 BMatP= 9.24D-01
 IDIUse=3 WtCom= 7.31D-01 WtEn= 2.69D-01
 Coeff-Com:  0.100D+01
 Coeff-En:   0.100D+01
 Coeff:      0.100D+01
 Gap=     0.089 Goal=   None    Shift=    0.000
 GapD=    0.089 DampG=0.500 DampE=0.500 DampFc=0.2500 IDamp=-1.
 Damping current iteration by 2.50D-01
 RMSDP=3.21D-03 MaxDP=1.25D-01              OVMax= 2.28D-01

 Cycle   2  Pass 1  IDiag  1:
 RMSU=  8.01D-04    CP:  9.95D-01
 E= -1259.92629783373     Delta-E=       -0.292235927647 Rises=F Damp=T
 DIIS: error= 1.47D-02 at cycle   2 NSaved=   2.
 NSaved= 2 IEnMin= 2 EnMin= -1259.92629783373     IErMin= 2 ErrMin= 1.47D-02
 ErrMax= 1.47D-02  0.00D+00 EMaxC= 1.00D-01 BMatC= 2.20D-01 BMatP= 9.24D-01
 IDIUse=3 WtCom= 8.53D-01 WtEn= 1.47D-01
 Coeff-Com: -0.723D+00 0.172D+01
 Coeff-En:   0.000D+00 0.100D+01
 Coeff:     -0.616D+00 0.162D+01
 Gap=     0.157 Goal=   None    Shift=    0.000
 RMSDP=5.89D-04 MaxDP=2.92D-02 DE=-2.92D-01 OVMax= 1.65D-01

 Cycle   3  Pass 1  IDiag  1:
 RMSU=  5.75D-04    CP:  9.92D-01  1.16D+00
 E= -1260.42606490920     Delta-E=       -0.499767075469 Rises=F Damp=F
 DIIS: error= 7.19D-03 at cycle   3 NSaved=   3.
 NSaved= 3 IEnMin= 3 EnMin= -1260.42606490920     IErMin= 3 ErrMin= 7.19D-03
 ErrMax= 7.19D-03  0.00D+00 EMaxC= 1.00D-01 BMatC= 3.19D-02 BMatP= 2.20D-01
 IDIUse=3 WtCom= 9.28D-01 WtEn= 7.19D-02
 Coeff-Com: -0.331D+00 0.700D+00 0.631D+00
 Coeff-En:   0.000D+00 0.000D+00 0.100D+01
 Coeff:     -0.307D+00 0.650D+00 0.658D+00
 Gap=     0.146 Goal=   None    Shift=    0.000
 RMSDP=3.22D-04 MaxDP=1.78D-02 DE=-5.00D-01 OVMax= 2.22D-02

 Cycle   4  Pass 1  IDiag  1:
 RMSU=  2.09D-04    CP:  9.94D-01  1.32D+00  6.39D-01
 E= -1260.44895972290     Delta-E=       -0.022894813706 Rises=F Damp=F
 DIIS: error= 2.31D-03 at cycle   4 NSaved=   4.
 NSaved= 4 IEnMin= 4 EnMin= -1260.44895972290     IErMin= 4 ErrMin= 2.31D-03
 ErrMax= 2.31D-03  0.00D+00 EMaxC= 1.00D-01 BMatC= 5.98D-03 BMatP= 3.19D-02
 IDIUse=3 WtCom= 9.77D-01 WtEn= 2.31D-02
 Coeff-Com: -0.916D-01 0.175D+00 0.326D+00 0.591D+00
 Coeff-En:   0.000D+00 0.000D+00 0.110D+00 0.890D+00
 Coeff:     -0.895D-01 0.171D+00 0.321D+00 0.598D+00
 Gap=     0.137 Goal=   None    Shift=    0.000
 RMSDP=9.00D-05 MaxDP=4.48D-03 DE=-2.29D-02 OVMax= 7.71D-03

 Cycle   5  Pass 1  IDiag  1:
 RMSU=  5.49D-05    CP:  9.93D-01  1.30D+00  7.15D-01  7.43D-01
 E= -1260.45386281546     Delta-E=       -0.004903092555 Rises=F Damp=F
 DIIS: error= 5.11D-04 at cycle   5 NSaved=   5.
 NSaved= 5 IEnMin= 5 EnMin= -1260.45386281546     IErMin= 5 ErrMin= 5.11D-04
 ErrMax= 5.11D-04  0.00D+00 EMaxC= 1.00D-01 BMatC= 3.75D-04 BMatP= 5.98D-03
 IDIUse=3 WtCom= 9.95D-01 WtEn= 5.11D-03
 Coeff-Com: -0.172D-01 0.263D-01 0.959D-01 0.276D+00 0.619D+00
 Coeff-En:   0.000D+00 0.000D+00 0.000D+00 0.000D+00 0.100D+01
 Coeff:     -0.171D-01 0.262D-01 0.954D-01 0.275D+00 0.621D+00
 Gap=     0.136 Goal=   None    Shift=    0.000
 RMSDP=2.43D-05 MaxDP=1.22D-03 DE=-4.90D-03 OVMax= 1.69D-03

 Cycle   6  Pass 1  IDiag  1:
 RMSU=  1.40D-05    CP:  9.93D-01  1.29D+00  7.28D-01  7.33D-01  6.85D-01
 E= -1260.45415676718     Delta-E=       -0.000293951721 Rises=F Damp=F
 DIIS: error= 1.65D-04 at cycle   6 NSaved=   6.
 NSaved= 6 IEnMin= 6 EnMin= -1260.45415676718     IErMin= 6 ErrMin= 1.65D-04
 ErrMax= 1.65D-04  0.00D+00 EMaxC= 1.00D-01 BMatC= 1.26D-05 BMatP= 3.75D-04
 IDIUse=3 WtCom= 9.98D-01 WtEn= 1.65D-03
 Coeff-Com: -0.278D-02 0.286D-02 0.229D-01 0.856D-01 0.256D+00 0.636D+00
 Coeff-En:   0.000D+00 0.000D+00 0.000D+00 0.000D+00 0.000D+00 0.100D+01
 Coeff:     -0.277D-02 0.286D-02 0.228D-01 0.855D-01 0.255D+00 0.637D+00
 Gap=     0.137 Goal=   None    Shift=    0.000
 RMSDP=5.85D-06 MaxDP=4.60D-04 DE=-2.94D-04 OVMax= 7.54D-04

 Cycle   7  Pass 1  IDiag  1:
 RMSU=  3.06D-06    CP:  9.93D-01  1.29D+00  7.26D-01  7.45D-01  7.17D-01
                    CP:  7.30D-01
 E= -1260.45416777164     Delta-E=       -0.000011004465 Rises=F Damp=F
 DIIS: error= 4.37D-05 at cycle   7 NSaved=   7.
 NSaved= 7 IEnMin= 7 EnMin= -1260.45416777164     IErMin= 7 ErrMin= 4.37D-05
 ErrMax= 4.37D-05  0.00D+00 EMaxC= 1.00D-01 BMatC= 6.78D-07 BMatP= 1.26D-05
 IDIUse=1 WtCom= 1.00D+00 WtEn= 0.00D+00
 Coeff-Com: -0.516D-03 0.280D-03 0.534D-02 0.245D-01 0.798D-01 0.266D+00
 Coeff-Com:  0.625D+00
 Coeff:     -0.516D-03 0.280D-03 0.534D-02 0.245D-01 0.798D-01 0.266D+00
 Coeff:      0.625D+00
 Gap=     0.137 Goal=   None    Shift=    0.000
 RMSDP=1.16D-06 MaxDP=9.73D-05 DE=-1.10D-05 OVMax= 1.56D-04

 Cycle   8  Pass 1  IDiag  1:
 RMSU=  9.08D-07    CP:  9.93D-01  1.29D+00  7.26D-01  7.46D-01  7.16D-01
                    CP:  7.43D-01  7.90D-01
 E= -1260.45416825528     Delta-E=       -0.000000483633 Rises=F Damp=F
 DIIS: error= 3.22D-05 at cycle   8 NSaved=   8.
 NSaved= 8 IEnMin= 8 EnMin= -1260.45416825528     IErMin= 8 ErrMin= 3.22D-05
 ErrMax= 3.22D-05  0.00D+00 EMaxC= 1.00D-01 BMatC= 1.41D-07 BMatP= 6.78D-07
 IDIUse=1 WtCom= 1.00D+00 WtEn= 0.00D+00
 Coeff-Com:  0.121D-03-0.315D-03-0.482D-04 0.269D-02 0.108D-01 0.604D-01
 Coeff-Com:  0.335D+00 0.591D+00
 Coeff:      0.121D-03-0.315D-03-0.482D-04 0.269D-02 0.108D-01 0.604D-01
 Coeff:      0.335D+00 0.591D+00
 Gap=     0.137 Goal=   None    Shift=    0.000
 RMSDP=3.83D-07 MaxDP=6.44D-05 DE=-4.84D-07 OVMax= 9.24D-05

 Cycle   9  Pass 1  IDiag  1:
 RMSU=  2.86D-07    CP:  9.93D-01  1.29D+00  7.26D-01  7.46D-01  7.17D-01
                    CP:  7.53D-01  8.11D-01  7.99D-01
 E= -1260.45416834306     Delta-E=       -0.000000087785 Rises=F Damp=F
 DIIS: error= 1.52D-05 at cycle   9 NSaved=   9.
 NSaved= 9 IEnMin= 9 EnMin= -1260.45416834306     IErMin= 9 ErrMin= 1.52D-05
 ErrMax= 1.52D-05  0.00D+00 EMaxC= 1.00D-01 BMatC= 2.37D-08 BMatP= 1.41D-07
 IDIUse=1 WtCom= 1.00D+00 WtEn= 0.00D+00
 Coeff-Com:  0.870D-04-0.144D-03-0.546D-03-0.873D-03-0.180D-02 0.827D-02
 Coeff-Com:  0.132D+00 0.353D+00 0.510D+00
 Coeff:      0.870D-04-0.144D-03-0.546D-03-0.873D-03-0.180D-02 0.827D-02
 Coeff:      0.132D+00 0.353D+00 0.510D+00
 Gap=     0.137 Goal=   None    Shift=    0.000
 RMSDP=1.98D-07 MaxDP=2.49D-05 DE=-8.78D-08 OVMax= 3.20D-05

 Cycle  10  Pass 1  IDiag  1:
 RMSU=  8.65D-08    CP:  9.93D-01  1.29D+00  7.26D-01  7.46D-01  7.17D-01
                    CP:  7.53D-01  8.36D-01  8.09D-01  5.88D-01
 E= -1260.45416836159     Delta-E=       -0.000000018526 Rises=F Damp=F
 DIIS: error= 1.08D-06 at cycle  10 NSaved=  10.
 NSaved=10 IEnMin=10 EnMin= -1260.45416836159     IErMin=10 ErrMin= 1.08D-06
 ErrMax= 1.08D-06  0.00D+00 EMaxC= 1.00D-01 BMatC= 5.50D-10 BMatP= 2.37D-08
 IDIUse=1 WtCom= 1.00D+00 WtEn= 0.00D+00
 Coeff-Com:  0.209D-04-0.329D-04-0.201D-03-0.454D-03-0.126D-02-0.203D-03
 Coeff-Com:  0.311D-01 0.977D-01 0.203D+00 0.671D+00
 Coeff:      0.209D-04-0.329D-04-0.201D-03-0.454D-03-0.126D-02-0.203D-03
 Coeff:      0.311D-01 0.977D-01 0.203D+00 0.671D+00
 Gap=     0.137 Goal=   None    Shift=    0.000
 RMSDP=2.87D-08 MaxDP=2.03D-06 DE=-1.85D-08 OVMax= 2.65D-06

 Cycle  11  Pass 1  IDiag  1:
 RMSU=  2.09D-08    CP:  9.93D-01  1.29D+00  7.26D-01  7.46D-01  7.17D-01
                    CP:  7.53D-01  8.39D-01  8.14D-01  6.12D-01  8.54D-01
 E= -1260.45416836220     Delta-E=       -0.000000000611 Rises=F Damp=F
 DIIS: error= 3.27D-07 at cycle  11 NSaved=  11.
 NSaved=11 IEnMin=11 EnMin= -1260.45416836220     IErMin=11 ErrMin= 3.27D-07
 ErrMax= 3.27D-07  0.00D+00 EMaxC= 1.00D-01 BMatC= 6.08D-11 BMatP= 5.50D-10
 IDIUse=1 WtCom= 1.00D+00 WtEn= 0.00D+00
 Coeff-Com:  0.124D-05-0.203D-05-0.553D-04-0.153D-03-0.483D-03-0.740D-03
 Coeff-Com:  0.445D-02 0.178D-01 0.572D-01 0.312D+00 0.610D+00
 Coeff:      0.124D-05-0.203D-05-0.553D-04-0.153D-03-0.483D-03-0.740D-03
 Coeff:      0.445D-02 0.178D-01 0.572D-01 0.312D+00 0.610D+00
 Gap=     0.137 Goal=   None    Shift=    0.000
 RMSDP=1.06D-08 MaxDP=8.17D-07 DE=-6.11D-10 OVMax= 1.35D-06

 Cycle  12  Pass 1  IDiag  1:
 RMSU=  5.76D-09    CP:  9.93D-01  1.29D+00  7.26D-01  7.46D-01  7.17D-01
                    CP:  7.53D-01  8.38D-01  8.17D-01  6.28D-01  8.71D-01
                    CP:  7.07D-01
 E= -1260.45416836205     Delta-E=        0.000000000149 Rises=F Damp=F
 DIIS: error= 3.54D-08 at cycle  12 NSaved=  12.
 NSaved=12 IEnMin=11 EnMin= -1260.45416836220     IErMin=12 ErrMin= 3.54D-08
 ErrMax= 3.54D-08  0.00D+00 EMaxC= 1.00D-01 BMatC= 2.25D-12 BMatP= 6.08D-11
 IDIUse=1 WtCom= 1.00D+00 WtEn= 0.00D+00
 Coeff-Com: -0.157D-05 0.227D-05-0.567D-05-0.222D-04-0.854D-04-0.220D-03
 Coeff-Com: -0.498D-03-0.423D-03 0.639D-02 0.618D-01 0.210D+00 0.723D+00
 Coeff:     -0.157D-05 0.227D-05-0.567D-05-0.222D-04-0.854D-04-0.220D-03
 Coeff:     -0.498D-03-0.423D-03 0.639D-02 0.618D-01 0.210D+00 0.723D+00
 Gap=     0.137 Goal=   None    Shift=    0.000
 RMSDP=2.62D-09 MaxDP=2.05D-07 DE= 1.49D-10 OVMax= 2.73D-07

 SCF Done:  E(RB3LYP) =  -1260.45416836     A.U. after   12 cycles
            NFock= 12  Conv=0.26D-08     -V/T= 2.0174
 KE= 1.238896025005D+03 PE=-9.157310295887D+03 EE= 3.543410070366D+03
 Leave Link  502 at Wed May 27 13:01:39 2015, MaxMem=  2097152000 cpu:      1527.6
 (Enter /opt/gaussian/g09/l601.exe)
 Copying SCF densities to generalized density rwf, IOpCl= 0 IROHF=0.

 **********************************************************************

            Population analysis using the SCF density.

 **********************************************************************

 Orbital symmetries:
       Occupied  (A) (B) (A) (B) (A) (B) (A) (B) (A) (B) (A) (B)
                 (A) (B) (A) (B) (A) (B) (A) (B) (A) (B) (A) (B)
                 (A) (A) (B) (A) (A) (A) (B) (B) (A) (B) (A) (B)
                 (A) (B) (A) (B) (B) (A) (A) (B) (A) (B) (B) (A)
                 (B) (A) (B) (A) (B) (A) (A) (B) (B) (A) (B) (B)
                 (A) (B) (A) (A) (B) (A) (B) (B) (A) (A) (B) (B)
                 (A) (B) (A) (A) (B) (B) (A) (A) (B) (A) (B) (A)
                 (B) (A) (B) (A) (B) (A) (A) (B) (B) (A) (A) (B)
                 (B) (A) (B) (A) (B) (A) (B) (B) (A) (A) (B) (A)
                 (B) (A) (B)
       Virtual   (A) (B) (B) (A) (A) (B) (B) (A) (A) (B) (B) (A)
                 (B) (A) (A) (A) (B) (B) (A) (B) (A) (A) (B) (A)
                 (B) (A) (A) (B) (B) (A) (B) (B) (A) (A) (B) (B)
                 (A) (B) (A) (A) (A) (B) (B) (B) (A) (B) (A) (A)
                 (B) (B) (A) (B) (A) (A) (B) (B) (A) (A) (B) (A)
                 (B) (A) (B) (A) (B) (A) (A) (B) (B) (A) (B) (A)
                 (B) (A) (A) (B) (B) (A) (B) (A) (B) (B) (A) (A)
                 (B) (A) (B) (A) (A) (B) (B) (B) (A) (B) (A) (B)
                 (A) (A) (B) (B) (A) (B) (A) (B) (A) (B) (A) (B)
                 (A) (A) (B) (A) (B) (B) (A) (B) (A) (B) (A) (A)
                 (B) (A) (B) (A) (B) (A) (B) (B) (A) (B) (A) (A)
                 (B) (A) (B) (A) (B) (A) (A) (B) (B) (A) (B) (A)
                 (B) (A) (B) (B) (A) (A) (A) (B) (B) (A) (B) (B)
                 (A) (B) (A) (B) (A) (B) (A) (A) (B) (A) (A) (B)
                 (B) (B) (A) (B) (A) (A) (B) (B) (A) (A) (B) (A)
                 (B) (A) (B) (A) (B) (A) (B) (A) (B) (A) (A) (B)
                 (B) (A) (B) (B) (A) (A) (A) (B) (B) (A) (A) (B)
                 (B) (A) (A) (B) (B) (A) (B) (A) (B) (A) (B) (B)
                 (A) (A) (B) (B) (A) (A) (B) (B) (A) (B) (A) (A)
                 (B) (A) (B) (B) (A) (B) (A) (A) (B) (A) (B) (A)
                 (B) (B) (A) (B) (A) (B) (A) (B) (A) (A) (B) (B)
                 (A) (B) (A) (A) (B) (A) (B) (A) (B) (A) (B) (A)
                 (B) (B) (A) (A) (B) (B) (A) (A) (B) (A) (B) (A)
                 (B) (A) (B) (B) (A) (B) (A) (A) (B) (A) (A) (B)
                 (B) (B) (A) (A) (B) (B) (A) (B) (A) (A) (B) (B)
                 (A) (B) (A) (A) (B) (A) (B) (B) (A) (B) (A) (A)
                 (B) (B) (A) (B) (A) (A) (B) (B) (A) (B) (A) (B)
                 (A) (B) (A) (A) (B) (A) (B) (B) (A) (B) (A) (B)
                 (A) (A) (B) (B) (A) (A) (B) (A) (B) (A) (B) (B)
                 (A) (A) (B) (B) (A) (A) (B) (A) (B) (A) (B) (B)
                 (A) (A) (B) (A) (B) (B) (A) (B) (A) (B) (B) (A)
                 (A) (B) (A) (B) (A) (A) (B) (A) (B) (A) (B) (A)
                 (B) (B) (A) (B) (A) (B) (A) (A) (B) (B) (A) (A)
                 (B) (A) (B) (B) (A) (B) (A) (A) (B) (A) (B) (A)
                 (A) (B) (B) (A) (A) (B) (B) (A) (A) (B) (B) (A)
                 (A) (B) (B) (A) (B) (A) (B) (A) (B) (B) (A) (B)
                 (A) (B) (A) (B) (B) (A) (B) (A) (A) (B) (A) (A)
                 (A) (B) (B) (A) (A) (B) (B) (A) (B) (A) (B) (A)
                 (B) (A) (B) (B) (A) (A) (A) (B) (B) (A) (A) (B)
                 (A) (B) (B) (A) (B) (A) (B) (A) (A) (B) (B) (A)
                 (B) (A) (B) (A) (B) (A) (B) (A) (A) (B) (B) (A)
                 (B) (A) (B) (A) (B) (A) (B) (A) (B) (B) (A) (A)
                 (B) (A) (B) (B) (A) (A) (B) (B) (A) (B) (A) (B)
                 (A) (A) (B) (B) (A) (B) (A) (B) (A) (B) (A) (B)
                 (A) (B) (A) (A) (B) (B) (A) (A) (B) (B) (A) (A)
                 (B) (A) (B) (A) (A) (A) (B) (B) (A) (A) (B) (B)
                 (A) (B) (A) (A) (B) (B) (A) (B) (A) (B) (B) (A)
                 (A) (B) (B) (A) (B) (A) (B) (B) (A) (B) (A) (B)
                 (A) (A) (B) (A) (B) (A) (B) (A) (A) (B) (B) (A)
                 (B) (A) (B) (A) (A) (B) (A) (B) (A) (B) (B) (A)
                 (B) (A) (B) (B) (A) (B) (A) (B) (A) (A) (B) (A)
                 (B) (A) (B) (A) (B) (B) (A) (A) (B) (A) (B) (A)
                 (A) (B) (B) (A) (A) (B) (B) (A)
 The electronic state is 1-A.
 Alpha  occ. eigenvalues --  -14.37345 -14.30640 -14.30640 -14.30506 -14.30506
 Alpha  occ. eigenvalues --  -14.27707 -14.27707 -14.26797 -14.26797 -14.23518
 Alpha  occ. eigenvalues --  -14.23516 -10.20833 -10.20833 -10.20300 -10.20300
 Alpha  occ. eigenvalues --  -10.20045 -10.20045 -10.19456 -10.19456 -10.19075
 Alpha  occ. eigenvalues --  -10.19075 -10.18660 -10.18660 -10.17612 -10.17612
 Alpha  occ. eigenvalues --  -10.17268 -10.17268  -1.17394  -1.02307  -0.92653
 Alpha  occ. eigenvalues --   -0.92638  -0.90742  -0.90711  -0.89540  -0.89536
 Alpha  occ. eigenvalues --   -0.87215  -0.87177  -0.85212  -0.76826  -0.76821
 Alpha  occ. eigenvalues --   -0.72345  -0.72340  -0.72243  -0.72231  -0.67514
 Alpha  occ. eigenvalues --   -0.67500  -0.62869  -0.62866  -0.59834  -0.59804
 Alpha  occ. eigenvalues --   -0.59695  -0.59694  -0.56469  -0.56352  -0.54634
 Alpha  occ. eigenvalues --   -0.54622  -0.53842  -0.51922  -0.51811  -0.50148
 Alpha  occ. eigenvalues --   -0.50029  -0.49253  -0.49235  -0.48571  -0.48569
 Alpha  occ. eigenvalues --   -0.46412  -0.46231  -0.45754  -0.45734  -0.45173
 Alpha  occ. eigenvalues --   -0.45150  -0.44303  -0.44281  -0.42013  -0.41960
 Alpha  occ. eigenvalues --   -0.41613  -0.41430  -0.40272  -0.40106  -0.39974
 Alpha  occ. eigenvalues --   -0.39973  -0.39879  -0.39630  -0.38416  -0.38365
 Alpha  occ. eigenvalues --   -0.38326  -0.38156  -0.37777  -0.37020  -0.36676
 Alpha  occ. eigenvalues --   -0.35762  -0.35727  -0.34777  -0.34618  -0.34080
 Alpha  occ. eigenvalues --   -0.33985  -0.33757  -0.33657  -0.32618  -0.32245
 Alpha  occ. eigenvalues --   -0.31499  -0.24607  -0.24135  -0.23670  -0.23625
 Alpha  occ. eigenvalues --   -0.21536  -0.21299  -0.20529  -0.20367  -0.15982
 Alpha  occ. eigenvalues --   -0.15750
 Alpha virt. eigenvalues --   -0.02059  -0.00228   0.02259   0.02406   0.03368
 Alpha virt. eigenvalues --    0.04889   0.05333   0.05337   0.05645   0.06135
 Alpha virt. eigenvalues --    0.07067   0.07374   0.07773   0.08235   0.08545
 Alpha virt. eigenvalues --    0.08934   0.09422   0.10104   0.10445   0.10472
 Alpha virt. eigenvalues --    0.11044   0.11234   0.11288   0.11481   0.12346
 Alpha virt. eigenvalues --    0.12522   0.12855   0.13025   0.13308   0.13311
 Alpha virt. eigenvalues --    0.13563   0.14329   0.14784   0.14978   0.15064
 Alpha virt. eigenvalues --    0.15597   0.15707   0.16370   0.16574   0.17162
 Alpha virt. eigenvalues --    0.17494   0.17633   0.17810   0.18162   0.18506
 Alpha virt. eigenvalues --    0.18621   0.19154   0.19573   0.19743   0.20406
 Alpha virt. eigenvalues --    0.21362   0.21515   0.21721   0.21972   0.22083
 Alpha virt. eigenvalues --    0.22310   0.22552   0.23291   0.23549   0.23941
 Alpha virt. eigenvalues --    0.24075   0.24439   0.25185   0.25226   0.25965
 Alpha virt. eigenvalues --    0.26234   0.26604   0.26726   0.27383   0.29560
 Alpha virt. eigenvalues --    0.29566   0.31530   0.31598   0.33274   0.33290
 Alpha virt. eigenvalues --    0.33314   0.34508   0.35506   0.36042   0.36191
 Alpha virt. eigenvalues --    0.36363   0.37125   0.37189   0.37668   0.38198
 Alpha virt. eigenvalues --    0.38309   0.39258   0.39390   0.40062   0.40118
 Alpha virt. eigenvalues --    0.40422   0.40723   0.40875   0.41575   0.42641
 Alpha virt. eigenvalues --    0.43275   0.43512   0.43869   0.44499   0.45859
 Alpha virt. eigenvalues --    0.46854   0.47106   0.47429   0.47949   0.48377
 Alpha virt. eigenvalues --    0.48705   0.49199   0.49748   0.49899   0.50271
 Alpha virt. eigenvalues --    0.50719   0.50965   0.51099   0.51515   0.51980
 Alpha virt. eigenvalues --    0.52039   0.53474   0.54242   0.54287   0.54935
 Alpha virt. eigenvalues --    0.55113   0.55118   0.55568   0.55592   0.56359
 Alpha virt. eigenvalues --    0.57126   0.57327   0.57445   0.57770   0.57876
 Alpha virt. eigenvalues --    0.58371   0.58560   0.58854   0.59629   0.59719
 Alpha virt. eigenvalues --    0.60272   0.60418   0.60468   0.60878   0.60950
 Alpha virt. eigenvalues --    0.61209   0.61332   0.61721   0.62341   0.62346
 Alpha virt. eigenvalues --    0.63130   0.63150   0.63997   0.64180   0.64276
 Alpha virt. eigenvalues --    0.64630   0.64688   0.65470   0.65515   0.66239
 Alpha virt. eigenvalues --    0.66897   0.67032   0.67829   0.67861   0.68213
 Alpha virt. eigenvalues --    0.68664   0.69357   0.70251   0.70540   0.71482
 Alpha virt. eigenvalues --    0.71546   0.71973   0.72206   0.73226   0.73650
 Alpha virt. eigenvalues --    0.73814   0.74806   0.74876   0.75906   0.76238
 Alpha virt. eigenvalues --    0.76893   0.77329   0.79546   0.80901   0.81234
 Alpha virt. eigenvalues --    0.82447   0.83788   0.84127   0.84378   0.85367
 Alpha virt. eigenvalues --    0.85503   0.86637   0.87451   0.88187   0.89450
 Alpha virt. eigenvalues --    0.91208   0.91463   0.92349   0.93518   0.94313
 Alpha virt. eigenvalues --    0.95349   0.95400   0.95759   0.97091   0.97592
 Alpha virt. eigenvalues --    0.99119   0.99565   1.00496   1.00757   1.01457
 Alpha virt. eigenvalues --    1.02304   1.03130   1.04170   1.04849   1.05842
 Alpha virt. eigenvalues --    1.06615   1.08015   1.08570   1.09268   1.09666
 Alpha virt. eigenvalues --    1.11351   1.11783   1.12571   1.12779   1.14045
 Alpha virt. eigenvalues --    1.14376   1.15114   1.15297   1.17150   1.17540
 Alpha virt. eigenvalues --    1.18511   1.19811   1.21053   1.21432   1.21935
 Alpha virt. eigenvalues --    1.24662   1.25619   1.26014   1.26558   1.27404
 Alpha virt. eigenvalues --    1.28108   1.29461   1.30100   1.31498   1.32642
 Alpha virt. eigenvalues --    1.33610   1.34372   1.34991   1.35286   1.36014
 Alpha virt. eigenvalues --    1.36193   1.36667   1.39454   1.39859   1.40103
 Alpha virt. eigenvalues --    1.40939   1.41254   1.41589   1.43208   1.43232
 Alpha virt. eigenvalues --    1.43984   1.44119   1.45524   1.46333   1.46781
 Alpha virt. eigenvalues --    1.47626   1.48550   1.48758   1.49047   1.49537
 Alpha virt. eigenvalues --    1.50419   1.50632   1.51074   1.51320   1.52442
 Alpha virt. eigenvalues --    1.52806   1.55097   1.55167   1.55236   1.55660
 Alpha virt. eigenvalues --    1.56567   1.56592   1.57135   1.57279   1.58458
 Alpha virt. eigenvalues --    1.58606   1.59186   1.59548   1.59791   1.59975
 Alpha virt. eigenvalues --    1.60261   1.60955   1.61297   1.61682   1.62346
 Alpha virt. eigenvalues --    1.62476   1.62670   1.62856   1.63266   1.63680
 Alpha virt. eigenvalues --    1.64205   1.64360   1.64938   1.65020   1.65668
 Alpha virt. eigenvalues --    1.65963   1.65966   1.66195   1.66596   1.66671
 Alpha virt. eigenvalues --    1.67181   1.67290   1.68433   1.69509   1.70104
 Alpha virt. eigenvalues --    1.70234   1.70638   1.70855   1.72353   1.72671
 Alpha virt. eigenvalues --    1.72875   1.72975   1.73258   1.73433   1.74435
 Alpha virt. eigenvalues --    1.74774   1.75251   1.76091   1.76258   1.76504
 Alpha virt. eigenvalues --    1.77201   1.77582   1.77755   1.78462   1.79174
 Alpha virt. eigenvalues --    1.79192   1.80347   1.81205   1.81655   1.81748
 Alpha virt. eigenvalues --    1.83713   1.84313   1.85397   1.86008   1.86526
 Alpha virt. eigenvalues --    1.87275   1.88468   1.88830   1.89592   1.90191
 Alpha virt. eigenvalues --    1.91101   1.91236   1.91600   1.91865   1.92621
 Alpha virt. eigenvalues --    1.92665   1.93624   1.93702   1.95276   1.96160
 Alpha virt. eigenvalues --    1.96177   1.96689   1.98782   1.98835   2.00619
 Alpha virt. eigenvalues --    2.00643   2.01325   2.01980   2.03472   2.03673
 Alpha virt. eigenvalues --    2.05976   2.06162   2.07610   2.08678   2.08856
 Alpha virt. eigenvalues --    2.09430   2.09533   2.10298   2.10491   2.11083
 Alpha virt. eigenvalues --    2.12203   2.12296   2.12610   2.13740   2.14722
 Alpha virt. eigenvalues --    2.14916   2.18047   2.18945   2.19376   2.19960
 Alpha virt. eigenvalues --    2.20327   2.21324   2.21791   2.22326   2.22757
 Alpha virt. eigenvalues --    2.23008   2.23972   2.24012   2.25262   2.25690
 Alpha virt. eigenvalues --    2.26377   2.26486   2.29996   2.30030   2.30762
 Alpha virt. eigenvalues --    2.31819   2.32277   2.32548   2.32746   2.33461
 Alpha virt. eigenvalues --    2.34143   2.34489   2.35016   2.36373   2.36598
 Alpha virt. eigenvalues --    2.36848   2.38117   2.39044   2.39214   2.39709
 Alpha virt. eigenvalues --    2.40330   2.40536   2.40665   2.41768   2.42973
 Alpha virt. eigenvalues --    2.43916   2.44475   2.45406   2.46113   2.46835
 Alpha virt. eigenvalues --    2.46925   2.47134   2.47354   2.47683   2.49355
 Alpha virt. eigenvalues --    2.49695   2.50400   2.50508   2.52383   2.52452
 Alpha virt. eigenvalues --    2.53989   2.54540   2.55301   2.55517   2.55867
 Alpha virt. eigenvalues --    2.56538   2.57852   2.57928   2.58030   2.58627
 Alpha virt. eigenvalues --    2.58677   2.60277   2.60794   2.61076   2.61352
 Alpha virt. eigenvalues --    2.62153   2.62324   2.62928   2.63279   2.63532
 Alpha virt. eigenvalues --    2.63804   2.63825   2.64582   2.65907   2.66260
 Alpha virt. eigenvalues --    2.66615   2.67497   2.67682   2.68225   2.68372
 Alpha virt. eigenvalues --    2.69825   2.70825   2.71204   2.71998   2.72431
 Alpha virt. eigenvalues --    2.72920   2.72921   2.73646   2.74465   2.75723
 Alpha virt. eigenvalues --    2.76384   2.77942   2.77976   2.78688   2.79166
 Alpha virt. eigenvalues --    2.79881   2.80259   2.81285   2.81366   2.81704
 Alpha virt. eigenvalues --    2.82173   2.83331   2.83582   2.84294   2.84622
 Alpha virt. eigenvalues --    2.85351   2.85525   2.87398   2.87432   2.87565
 Alpha virt. eigenvalues --    2.88234   2.89003   2.90570   2.90622   2.92426
 Alpha virt. eigenvalues --    2.93387   2.94459   2.94608   2.96484   2.97219
 Alpha virt. eigenvalues --    2.97486   2.97748   2.98255   2.98675   3.10241
 Alpha virt. eigenvalues --    3.10904   3.11330   3.12439   3.15074   3.15386
 Alpha virt. eigenvalues --    3.15547   3.16132   3.17639   3.17950   3.18682
 Alpha virt. eigenvalues --    3.19389   3.20262   3.20922   3.22674   3.23140
 Alpha virt. eigenvalues --    3.24947   3.25255   3.43652   3.43778   3.44020
 Alpha virt. eigenvalues --    3.44757   3.46957   3.47558   3.50206   3.51015
 Alpha virt. eigenvalues --    3.56998   3.57642   3.57957   3.59315   3.62261
 Alpha virt. eigenvalues --    3.63707   3.64899   3.65606   3.70000   3.71886
 Alpha virt. eigenvalues --    3.74845   3.75115   3.77434   3.77821   3.78286
 Alpha virt. eigenvalues --    3.78321   3.78998   3.79985   3.80539   3.82188
 Alpha virt. eigenvalues --    3.82412   3.82451   3.83028   3.83767   3.85460
 Alpha virt. eigenvalues --    3.87300   3.87806   3.95430   3.98014   4.00566
 Alpha virt. eigenvalues --    4.01248   4.02239   4.03272   4.03423   4.04272
 Alpha virt. eigenvalues --    4.04913   4.06141   4.08906   4.09029   4.12006
 Alpha virt. eigenvalues --    4.16238   4.16274   4.25784   4.26416   4.27642
 Alpha virt. eigenvalues --    4.29008   4.33968   4.34270   4.35947   4.41957
 Alpha virt. eigenvalues --    4.47720   4.76103   4.76516   4.77323   4.77454
 Alpha virt. eigenvalues --    4.81054   4.82424   4.84546   4.84848   4.88797
 Alpha virt. eigenvalues --    4.88852   4.88892   4.88895   4.93705   4.94050
 Alpha virt. eigenvalues --    4.95026   4.95257   5.04168   5.06173  19.55752
 Alpha virt. eigenvalues --   23.80184  23.80213  23.81820  23.81906  23.82410
 Alpha virt. eigenvalues --   23.82615  23.83558  23.83660  23.84255  23.84303
 Alpha virt. eigenvalues --   23.85854  23.86055  23.86811  23.86815  23.89383
 Alpha virt. eigenvalues --   23.89420  35.20681  35.53115  35.53209  35.56585
 Alpha virt. eigenvalues --   35.56670  35.58178  35.58434  35.60651  35.60801
 Alpha virt. eigenvalues --   35.61959  36.27975
          Condensed to atoms (all electrons):
 Mulliken charges:
               1
     1  C   -0.113003
     2  H    0.089511
     3  H    0.112910
     4  C   -0.065200
     5  H    0.110132
     6  H    0.095238
     7  C   -0.118974
     8  H    0.096257
     9  H    0.099308
    10  C   -0.091148
    11  H    0.103536
    12  H    0.099184
    13  C   -0.050243
    14  H    0.074672
    15  H    0.094367
    16  N   -0.423570
    17  H    0.222865
    18  N   -0.400853
    19  H    0.187483
    20  N   -0.396370
    21  H    0.192303
    22  N   -0.442831
    23  H    0.234235
    24  C   -0.087312
    25  H    0.108200
    26  H    0.085776
    27  C   -0.134018
    28  H    0.162244
    29  H    0.083470
    30  C   -0.075574
    31  H    0.099598
    32  H    0.099708
    33  N   -0.465557
    34  N    0.182641
    35  N   -0.465557
    36  C   -0.118974
    37  H    0.096257
    38  H    0.099308
    39  C   -0.091148
    40  H    0.103536
    41  H    0.099184
    42  C   -0.087312
    43  H    0.085776
    44  H    0.108200
    45  C   -0.050243
    46  H    0.074672
    47  H    0.094367
    48  C   -0.075574
    49  H    0.099708
    50  H    0.099598
    51  N   -0.400853
    52  H    0.187483
    53  N   -0.396370
    54  H    0.192303
    55  N   -0.442831
    56  H    0.234235
    57  N   -0.423570
    58  H    0.222865
    59  C   -0.134018
    60  H    0.162244
    61  H    0.083470
    62  C   -0.113003
    63  H    0.112910
    64  H    0.089511
    65  C   -0.065200
    66  H    0.095238
    67  H    0.110132
    68  Rb   0.644670
 Sum of Mulliken charges =   0.00000
 Mulliken charges with hydrogens summed into heavy atoms:
               1
     1  C    0.089418
     4  C    0.140171
     7  C    0.076591
    10  C    0.111573
    13  C    0.118796
    16  N   -0.200706
    18  N   -0.213369
    20  N   -0.204067
    22  N   -0.208596
    24  C    0.106664
    27  C    0.111697
    30  C    0.123731
    33  N   -0.465557
    34  N    0.182641
    35  N   -0.465557
    36  C    0.076591
    39  C    0.111573
    42  C    0.106664
    45  C    0.118796
    48  C    0.123731
    51  N   -0.213369
    53  N   -0.204067
    55  N   -0.208596
    57  N   -0.200706
    59  C    0.111697
    62  C    0.089418
    65  C    0.140171
    68  Rb   0.644670
         Mulliken charges condensed to fragments:
      1      0.748473
      2     -0.748473
 Electronic spatial extent (au):  <R**2>=          11386.9585
 Charge=              0.0000 electrons
 Dipole moment (field-independent basis, Debye):
    X=              0.0000    Y=              0.0000    Z=            -10.6661  Tot=             10.6661
 Quadrupole moment (field-independent basis, Debye-Ang):
   XX=           -177.8101   YY=           -171.5002   ZZ=           -201.2216
   XY=              0.6128   XZ=              0.0000   YZ=              0.0000
 Traceless Quadrupole moment (field-independent basis, Debye-Ang):
   XX=              5.7005   YY=             12.0104   ZZ=            -17.7110
   XY=              0.6128   XZ=              0.0000   YZ=              0.0000
 Octapole moment (field-independent basis, Debye-Ang**2):
  XXX=              0.0000  YYY=              0.0000  ZZZ=           -126.9378  XYY=              0.0000
  XXY=              0.0000  XXZ=            -38.8511  XZZ=              0.0000  YZZ=              0.0000
  YYZ=             -4.0245  XYZ=             -2.9704
 Hexadecapole moment (field-independent basis, Debye-Ang**3):
 XXXX=          -3504.0453 YYYY=          -7795.3573 ZZZZ=          -4363.1006 XXXY=            563.3844
 XXXZ=              0.0000 YYYX=            546.9518 YYYZ=              0.0000 ZZZX=              0.0000
 ZZZY=              0.0000 XXYY=          -1894.7570 XXZZ=          -1321.4777 YYZZ=          -1964.1680
 XXYZ=              0.0000 YYXZ=              0.0000 ZZXY=            174.0875
 N-N= 3.114550032153D+03 E-N=-9.157310277206D+03  KE= 1.238896025005D+03
 Symmetry A    KE= 6.413706509322D+02
 Symmetry B    KE= 5.975253740733D+02
 No NMR shielding tensors so no spin-rotation constants.
 Leave Link  601 at Wed May 27 13:01:41 2015, MaxMem=  2097152000 cpu:        30.1
 (Enter /opt/gaussian/g09/l122.exe)
 CPIOFr:  IOpCl= 0 IRwI=-1 IRwCP=  731 ICalc= -1 LCPTot=      859415 Len1MO=     2224763 IndFrg=      859415
 CPIOFr:  IOpCl= 0 IRwI=-1 IRwCP=  731 ICalc=  0 LCPTot=      859415 Len1MO=     2224763 IndFrg=     3084178
 Counterpoise: doing DCBS calculation for fragment   1 NewBq=T
 Leave Link  122 at Wed May 27 13:01:41 2015, MaxMem=  2097152000 cpu:         0.5
 (Enter /opt/gaussian/g09/l301.exe)
 Basis read from rwf:  (5D, 7F)
 Pseudo-potential data read from rwf file.
 There are   387 symmetry adapted cartesian basis functions of A   symmetry.
 There are   383 symmetry adapted cartesian basis functions of B   symmetry.
 There are   373 symmetry adapted basis functions of A   symmetry.
 There are   370 symmetry adapted basis functions of B   symmetry.
   743 basis functions,  1209 primitive gaussians,   770 cartesian basis functions
   100 alpha electrons      100 beta electrons
       nuclear repulsion energy      2587.4599486519 Hartrees.
 IExCor=  402 DFT=T Ex+Corr=B3LYP ExCW=0 ScaHFX=  0.200000
 ScaDFX=  0.800000  0.720000  1.000000  0.810000 ScalE2=  1.000000  1.000000
 IRadAn=      0 IRanWt=     -1 IRanGd=            0 ICorTp=0 IEmpDi=  4
 NAtoms=   68 NActive=   68 NUniq=   35 SFac= 3.77D+00 NAtFMM=   60 NAOKFM=T Big=F
 Integral buffers will be    131072 words long.
 Raffenetti 2 integral format.
 Two-electron integral symmetry is turned on.
 No density basis found on file   718.
 Leave Link  301 at Wed May 27 13:01:41 2015, MaxMem=  2097152000 cpu:         0.7
 (Enter /opt/gaussian/g09/l302.exe)
 NPDir=0 NMtPBC=     1 NCelOv=     1 NCel=       1 NClECP=     1 NCelD=      1
         NCelK=      1 NCelE2=     1 NClLst=     1 CellRange=     0.0.
 One-electron integrals computed using PRISM.
 One-electron integral symmetry used in STVInt
   2 Symmetry operations used in ECPInt.
 ECPInt:  NShTT=   46360 NPrTT=  167365 LenC2=   37713 LenP2D=   84534.
 LDataN:  DoStor=T MaxTD1= 6 Len=  172
 NBasis=   743 RedAO= T EigKep=  1.02D-03  NBF=   373   370
 NBsUse=   743 1.00D-06 EigRej= -1.00D+00 NBFU=   373   370
 Precomputing XC quadrature grid using
 IXCGrd= 4 IRadAn=           0 IRanWt=          -1 IRanGd=           0 AccXCQ= 0.00D+00.
 Defaulting to unpruned grid for atomic number  37.
 Generated NRdTot=       0 NPtTot=           0 NUsed=           0 NTot=          32
 NSgBfM=   770   770   770   770   770 MxSgAt=    68 MxSgA2=    68.
 Leave Link  302 at Wed May 27 13:01:43 2015, MaxMem=  2097152000 cpu:        17.8
 (Enter /opt/gaussian/g09/l303.exe)
 DipDrv:  MaxL=1.
 Leave Link  303 at Wed May 27 13:01:43 2015, MaxMem=  2097152000 cpu:         1.7
 (Enter /opt/gaussian/g09/l401.exe)
 ExpMin= 2.05D-02 ExpMax= 6.29D+03 ExpMxC= 9.49D+02 IAcc=3 IRadAn=         5 AccDes= 0.00D+00
 Harris functional with IExCor=  402 and IRadAn=       5 diagonalized for initial guess.
 HarFok:  IExCor=  402 AccDes= 0.00D+00 IRadAn=         5 IDoV= 1 UseB2=F ITyADJ=14
 ICtDFT=  3500011 ScaDFX=  1.000000  1.000000  1.000000  1.000000
 Defaulting to unpruned grid for atomic number  37.
 Defaulting to unpruned grid for atomic number  37.
 Defaulting to unpruned grid for atomic number  37.
 Defaulting to unpruned grid for atomic number  37.
 Defaulting to unpruned grid for atomic number  37.
 Defaulting to unpruned grid for atomic number  37.
 Defaulting to unpruned grid for atomic number  37.
 Defaulting to unpruned grid for atomic number  37.
 Defaulting to unpruned grid for atomic number  37.
 Defaulting to unpruned grid for atomic number  37.
 Defaulting to unpruned grid for atomic number  37.
 Defaulting to unpruned grid for atomic number  37.
 Defaulting to unpruned grid for atomic number  37.
 Defaulting to unpruned grid for atomic number  37.
 Defaulting to unpruned grid for atomic number  37.
 Defaulting to unpruned grid for atomic number  37.
 FoFCou: FMM=F IPFlag=           0 FMFlag=      100000 FMFlg1=        2000
         NFxFlg=           0 DoJE=T BraDBF=F KetDBF=T FulRan=T
         wScrn=  0.000000 ICntrl=     500 IOpCl=  0 I1Cent=   200000004 NGrid=           0
         NMat0=    1 NMatS0=      1 NMatT0=    0 NMatD0=    1 NMtDS0=    0 NMtDT0=    0
 Petite list used in FoFCou.
 Harris En= -1095.81635903203    
 JPrj=0 DoOrth=F DoCkMO=F.
 Initial guess orbital symmetries:
       Occupied  (B) (A) (B) (A) (B) (A) (B) (A) (B) (A) (B) (A)
                 (A) (B) (B) (A) (B) (A) (B) (A) (B) (A) (B) (A)
                 (A) (B) (A) (A) (B) (A) (B) (B) (A) (A) (B) (A)
                 (B) (B) (A) (A) (B) (A) (B) (B) (A) (A) (B) (B)
                 (A) (A) (B) (B) (A) (B) (A) (B) (A) (B) (A) (B)
                 (A) (A) (B) (B) (A) (A) (B) (B) (A) (B) (A) (B)
                 (A) (B) (B) (A) (B) (A) (A) (B) (A) (B) (B) (A)
                 (A) (B) (A) (B) (B) (A) (A) (B) (A) (B) (B) (A)
                 (A) (B) (A) (B)
       Virtual   (A) (A) (B) (B) (A) (B) (B) (A) (A) (B) (A) (B)
                 (B) (A) (A) (B) (B) (A) (A) (A) (B) (B) (A) (A)
                 (B) (A) (B) (A) (B) (B) (A) (A) (B) (B) (A) (B)
                 (B) (A) (B) (A) (A) (B) (A) (B) (A) (B) (B) (A)
                 (A) (B) (A) (B) (A) (A) (B) (A) (A) (A) (B) (A)
                 (B) (B) (B) (A) (B) (A) (B) (A) (A) (B) (B) (A)
                 (B) (A) (B) (B) (A) (B) (A) (A) (B) (A) (B) (B)
                 (A) (B) (B) (A) (A) (B) (B) (A) (A) (B) (A) (B)
                 (B) (A) (B) (A) (B) (A) (B) (A) (B) (A) (A) (B)
                 (A) (B) (A) (B) (A) (B) (A) (A) (B) (B) (A) (A)
                 (B) (B) (A) (A) (B) (A) (B) (A) (B) (B) (A) (B)
                 (A) (B) (A) (A) (B) (A) (B) (A) (B) (A) (B) (A)
                 (B) (A) (B) (B) (A) (B) (A) (A) (B) (A) (B) (A)
                 (B) (A) (B) (B) (A) (B) (A) (A) (B) (A) (B) (B)
                 (A) (B) (A) (B) (A) (A) (B) (A) (B) (B) (A) (B)
                 (A) (A) (B) (B) (A) (B) (A) (B) (A) (B) (A) (B)
                 (A) (B) (A) (A) (B) (A) (B) (B) (A) (A) (B) (A)
                 (B) (A) (B) (B) (A) (A) (B) (B) (A) (B) (A) (A)
                 (A) (B) (B) (A) (B) (A) (B) (A) (B) (A) (A) (B)
                 (B) (A) (B) (A) (A) (B) (B) (A) (B) (B) (A) (A)
                 (B) (B) (A) (B) (A) (A) (B) (A) (B) (A) (B) (A)
                 (B) (A) (B) (A) (A) (B) (B) (A) (B) (A) (B) (A)
                 (B) (B) (A) (B) (A) (A) (B) (A) (B) (A) (B) (A)
                 (B) (A) (B) (B) (A) (A) (A) (B) (B) (A) (B) (B)
                 (A) (B) (A) (A) (B) (A) (B) (B) (A) (A) (B) (B)
                 (A) (B) (A) (A) (B) (A) (B) (A) (B) (A) (B) (A)
                 (B) (B) (A) (A) (B) (A) (A) (B) (B) (A) (A) (B)
                 (B) (A) (B) (A) (B) (B) (A) (A) (A) (B) (B) (A)
                 (B) (B) (A) (A) (B) (A) (B) (B) (A) (A) (B) (B)
                 (A) (A) (B) (B) (A) (A) (B) (A) (B) (A) (B) (B)
                 (A) (B) (A) (A) (A) (B) (A) (B) (A) (B) (A) (B)
                 (B) (A) (A) (B) (A) (B) (A) (B) (B) (A) (B) (A)
                 (A) (B) (A) (B) (A) (B) (A) (B) (B) (A) (A) (B)
                 (A) (B) (B) (A) (A) (B) (B) (A) (A) (B) (B) (A)
                 (A) (B) (B) (A) (A) (A) (B) (B) (A) (B) (A) (B)
                 (A) (B) (B) (A) (B) (A) (B) (A) (B) (B) (A) (A)
                 (B) (A) (B) (A) (B) (A) (B) (A) (B) (B) (A) (A)
                 (A) (B) (B) (A) (B) (B) (A) (A) (B) (A) (B) (A)
                 (B) (A) (A) (B) (B) (A) (A) (B) (A) (B) (B) (A)
                 (B) (A) (B) (A) (A) (B) (B) (A) (B) (A) (A) (B)
                 (A) (B) (B) (A) (A) (A) (B) (B) (A) (B) (A) (B)
                 (A) (B) (A) (B) (B) (A) (B) (A) (A) (B) (A) (B)
                 (A) (B) (A) (B) (A) (B) (B) (A) (B) (A) (A) (B)
                 (B) (A) (B) (A) (B) (A) (B) (A) (B) (B) (A) (B)
                 (A) (B) (A) (A) (B) (B) (A) (A) (B) (B) (A) (A)
                 (B) (B) (A) (A) (B) (A) (B) (B) (A) (A) (B) (B)
                 (A) (B) (A) (A) (B) (B) (A) (A) (B) (B) (A) (B)
                 (A) (A) (B) (B) (A) (B) (A) (B) (A) (B) (A) (B)
                 (A) (B) (A) (B) (A) (A) (B) (A) (B) (A) (B) (A)
                 (B) (A) (A) (B) (A) (B) (B) (A) (B) (A) (B) (A)
                 (B) (B) (A) (A) (B) (B) (A) (A) (B) (A) (B) (B)
                 (A) (B) (A) (A) (A) (B) (B) (A) (A) (B) (A) (B)
                 (B) (A) (A) (B) (B) (A) (A) (B) (B) (A) (A) (B)
                 (B) (A) (A) (B) (A) (B) (A)
 The electronic state of the initial guess is 1-A.
 Leave Link  401 at Wed May 27 13:01:46 2015, MaxMem=  2097152000 cpu:        57.8
 (Enter /opt/gaussian/g09/l502.exe)
 Closed shell SCF:
 Using DIIS extrapolation, IDIIS=  1040.
 Integral symmetry usage will be decided dynamically.
 IVT=     1816424 IEndB=     1816424 NGot=  2097152000 MDV=  2095945887
 LenX=  2095945887 LenY=  2095352217
 Requested convergence on RMS density matrix=1.00D-08 within 128 cycles.
 Requested convergence on MAX density matrix=1.00D-06.
 Requested convergence on             energy=1.00D-06.
 No special actions if energy rises.
 Fock matrices will be formed incrementally for  20 cycles.

 Cycle   1  Pass 1  IDiag  1:
 FoFJK:  IHMeth= 1 ICntrl=       0 DoSepK=F KAlg= 0 I1Cent=   0 FoldK=F
 IRaf= 680000000 NMat=   1 IRICut=       1 DoRegI=T DoRafI=F ISym2E= 1.
 FoFCou: FMM=F IPFlag=           0 FMFlag=      100000 FMFlg1=        2000
         NFxFlg=           0 DoJE=F BraDBF=F KetDBF=F FulRan=T
         wScrn=  0.000000 ICntrl=       0 IOpCl=  0 I1Cent=           0 NGrid=           0
         NMat0=    1 NMatS0=      1 NMatT0=    0 NMatD0=    1 NMtDS0=    0 NMtDT0=    0
 Petite list used in FoFCou.
 Defaulting to unpruned grid for atomic number  37.
 Defaulting to unpruned grid for atomic number  37.
 Defaulting to unpruned grid for atomic number  37.
 Defaulting to unpruned grid for atomic number  37.
 Defaulting to unpruned grid for atomic number  37.
 Defaulting to unpruned grid for atomic number  37.
 Defaulting to unpruned grid for atomic number  37.
 Defaulting to unpruned grid for atomic number  37.
 Defaulting to unpruned grid for atomic number  37.
 Defaulting to unpruned grid for atomic number  37.
 Defaulting to unpruned grid for atomic number  37.
 Defaulting to unpruned grid for atomic number  37.
[...]
 There are    28 symmetry adapted basis functions of A   symmetry.
 There are    26 symmetry adapted basis functions of B   symmetry.
    54 basis functions,    96 primitive gaussians,    57 cartesian basis functions
    11 alpha electrons       11 beta electrons
       nuclear repulsion energy        54.8665987408 Hartrees.
 IExCor=  402 DFT=T Ex+Corr=B3LYP ExCW=0 ScaHFX=  0.200000
 ScaDFX=  0.800000  0.720000  1.000000  0.810000 ScalE2=  1.000000  1.000000
 IRadAn=      0 IRanWt=     -1 IRanGd=            0 ICorTp=0 IEmpDi=  4
 NAtoms=   68 NActive=    3 NUniq=    2 SFac= 2.25D+00 NAtFMM=   60 NAOKFM=F Big=F
 Integral buffers will be    131072 words long.
 Raffenetti 2 integral format.
 Two-electron integral symmetry is turned on.
 No density basis found on file   718.
 Leave Link  301 at Wed May 27 13:05:57 2015, MaxMem=  2097152000 cpu:         0.7
 (Enter /opt/gaussian/g09/l302.exe)
 NPDir=0 NMtPBC=     1 NCelOv=     1 NCel=       1 NClECP=     1 NCelD=      1
         NCelK=      1 NCelE2=     1 NClLst=     1 CellRange=     0.0.
 One-electron integrals computed using PRISM.
 One-electron integral symmetry used in STVInt
   2 Symmetry operations used in ECPInt.
 ECPInt:  NShTT=     120 NPrTT=     720 LenC2=     121 LenP2D=     595.
 LDataN:  DoStor=T MaxTD1= 4 Len=   56
 NBasis=    54 RedAO= T EigKep=  1.14D-03  NBF=    28    26
 NBsUse=    54 1.00D-06 EigRej= -1.00D+00 NBFU=    28    26
 Precomputing XC quadrature grid using
 IXCGrd= 4 IRadAn=           0 IRanWt=          -1 IRanGd=           0 AccXCQ= 0.00D+00.
 Generated NRdTot=       0 NPtTot=           0 NUsed=           0 NTot=          32
 NSgBfM=    57    57    57    57    57 MxSgAt=     3 MxSgA2=     3.
 Leave Link  302 at Wed May 27 13:05:57 2015, MaxMem=  2097152000 cpu:         1.8
 (Enter /opt/gaussian/g09/l303.exe)
 DipDrv:  MaxL=1.
 Leave Link  303 at Wed May 27 13:05:57 2015, MaxMem=  2097152000 cpu:         0.2
 (Enter /opt/gaussian/g09/l401.exe)
 ExpMin= 2.01D-01 ExpMax= 6.29D+03 ExpMxC= 9.49D+02 IAcc=1 IRadAn=         1 AccDes= 0.00D+00
 Harris functional with IExCor=  402 and IRadAn=       1 diagonalized for initial guess.
 HarFok:  IExCor=  402 AccDes= 0.00D+00 IRadAn=         1 IDoV= 1 UseB2=F ITyADJ=14
 ICtDFT=  3500011 ScaDFX=  1.000000  1.000000  1.000000  1.000000
 FoFCou: FMM=F IPFlag=           0 FMFlag=      100000 FMFlg1=           0
         NFxFlg=           0 DoJE=T BraDBF=F KetDBF=T FulRan=T
         wScrn=  0.000000 ICntrl=     500 IOpCl=  0 I1Cent=   200000004 NGrid=           0
         NMat0=    1 NMatS0=      1 NMatT0=    0 NMatD0=    1 NMtDS0=    0 NMtDT0=    0
 Petite list used in FoFCou.
 Harris En= -164.414676361704    
 JPrj=0 DoOrth=F DoCkMO=F.
 Initial guess orbital symmetries:
       Occupied  (A) (B) (A) (A) (B) (A) (B) (A) (B) (A) (B)
       Virtual   (A) (B) (A) (B) (A) (B) (A) (A) (B) (A) (B) (A)
                 (B) (B) (A) (B) (A) (B) (A) (B) (B) (A) (A) (B)
                 (A) (B) (A) (B) (A) (B) (A) (B) (A) (B) (A) (B)
                 (A) (A) (B) (B) (A) (B) (A)
 The electronic state of the initial guess is 1-A.
 Leave Link  401 at Wed May 27 13:05:57 2015, MaxMem=  2097152000 cpu:         1.4
 (Enter /opt/gaussian/g09/l502.exe)
 Closed shell SCF:
 Using DIIS extrapolation, IDIIS=  1040.
 Integral symmetry usage will be decided dynamically.
 Keep R1 ints in memory in symmetry-blocked form, NReq=2023950.
 IVT=       29829 IEndB=       29829 NGot=  2097152000 MDV=  2096566457
 LenX=  2096566457 LenY=  2096562767
 Requested convergence on RMS density matrix=1.00D-08 within 128 cycles.
 Requested convergence on MAX density matrix=1.00D-06.
 Requested convergence on             energy=1.00D-06.
 No special actions if energy rises.
 FoFCou: FMM=F IPFlag=           0 FMFlag=           0 FMFlg1=           0
         NFxFlg=           0 DoJE=F BraDBF=F KetDBF=F FulRan=T
         wScrn=  0.000000 ICntrl=     600 IOpCl=  0 I1Cent=           0 NGrid=           0
         NMat0=    1 NMatS0=   1485 NMatT0=    0 NMatD0=    1 NMtDS0=    0 NMtDT0=    0
 Petite list used in FoFCou.
 Integral accuracy reduced to 1.0D-05 until final iterations.

 Cycle   1  Pass 0  IDiag  1:
 E= -164.165985718185    
 DIIS: error= 4.94D-02 at cycle   1 NSaved=   1.
 NSaved= 1 IEnMin= 1 EnMin= -164.165985718185     IErMin= 1 ErrMin= 4.94D-02
 ErrMax= 4.94D-02  0.00D+00 EMaxC= 1.00D-01 BMatC= 1.35D-01 BMatP= 1.35D-01
 IDIUse=3 WtCom= 5.06D-01 WtEn= 4.94D-01
 Coeff-Com:  0.100D+01
 Coeff-En:   0.100D+01
 Coeff:      0.100D+01
 Gap=     0.229 Goal=   None    Shift=    0.000
 GapD=    0.229 DampG=1.000 DampE=0.500 DampFc=0.5000 IDamp=-1.
 Damping current iteration by 5.00D-01
 RMSDP=9.11D-03 MaxDP=1.17D-01              OVMax= 1.61D-01

 Cycle   2  Pass 0  IDiag  1:
 E= -164.203236091555     Delta-E=       -0.037250373370 Rises=F Damp=T
 DIIS: error= 2.46D-02 at cycle   2 NSaved=   2.
 NSaved= 2 IEnMin= 2 EnMin= -164.203236091555     IErMin= 2 ErrMin= 2.46D-02
 ErrMax= 2.46D-02  0.00D+00 EMaxC= 1.00D-01 BMatC= 1.31D-02 BMatP= 1.35D-01
 IDIUse=3 WtCom= 7.54D-01 WtEn= 2.46D-01
 Coeff-Com:  0.141D+00 0.859D+00
 Coeff-En:   0.234D+00 0.766D+00
 Coeff:      0.164D+00 0.836D+00
 Gap=     0.280 Goal=   None    Shift=    0.000
 RMSDP=1.69D-03 MaxDP=3.44D-02 DE=-3.73D-02 OVMax= 1.20D-01

 Cycle   3  Pass 0  IDiag  1:
 E= -164.256391259123     Delta-E=       -0.053155167568 Rises=F Damp=F
 DIIS: error= 1.96D-02 at cycle   3 NSaved=   3.
 NSaved= 3 IEnMin= 3 EnMin= -164.256391259123     IErMin= 3 ErrMin= 1.96D-02
 ErrMax= 1.96D-02  0.00D+00 EMaxC= 1.00D-01 BMatC= 7.46D-03 BMatP= 1.31D-02
 IDIUse=3 WtCom= 8.04D-01 WtEn= 1.96D-01
 Coeff-Com:  0.298D-01 0.422D+00 0.548D+00
 Coeff-En:   0.000D+00 0.000D+00 0.100D+01
 Coeff:      0.240D-01 0.339D+00 0.637D+00
 Gap=     0.275 Goal=   None    Shift=    0.000
 RMSDP=1.32D-03 MaxDP=2.36D-02 DE=-5.32D-02 OVMax= 3.28D-02

 Cycle   4  Pass 0  IDiag  1:
 E= -164.260923836571     Delta-E=       -0.004532577448 Rises=F Damp=F
 DIIS: error= 9.33D-03 at cycle   4 NSaved=   4.
 NSaved= 4 IEnMin= 4 EnMin= -164.260923836571     IErMin= 4 ErrMin= 9.33D-03
 ErrMax= 9.33D-03  0.00D+00 EMaxC= 1.00D-01 BMatC= 1.57D-03 BMatP= 7.46D-03
 IDIUse=3 WtCom= 9.07D-01 WtEn= 9.33D-02
 Coeff-Com:  0.171D-01-0.121D-02 0.298D+00 0.686D+00
 Coeff-En:   0.000D+00 0.000D+00 0.181D+00 0.819D+00
 Coeff:      0.155D-01-0.109D-02 0.287D+00 0.699D+00
 Gap=     0.279 Goal=   None    Shift=    0.000
 RMSDP=4.99D-04 MaxDP=7.35D-03 DE=-4.53D-03 OVMax= 1.18D-02

 Cycle   5  Pass 0  IDiag  1:
 E= -164.262112878033     Delta-E=       -0.001189041462 Rises=F Damp=F
 DIIS: error= 8.69D-04 at cycle   5 NSaved=   5.
 NSaved= 5 IEnMin= 5 EnMin= -164.262112878033     IErMin= 5 ErrMin= 8.69D-04
 ErrMax= 8.69D-04  0.00D+00 EMaxC= 1.00D-01 BMatC= 1.53D-05 BMatP= 1.57D-03
 IDIUse=3 WtCom= 9.91D-01 WtEn= 8.69D-03
 Coeff-Com: -0.284D-03 0.106D-02 0.385D-01 0.154D+00 0.807D+00
 Coeff-En:   0.000D+00 0.000D+00 0.000D+00 0.000D+00 0.100D+01
 Coeff:     -0.282D-03 0.105D-02 0.382D-01 0.152D+00 0.809D+00
 Gap=     0.279 Goal=   None    Shift=    0.000
 RMSDP=4.63D-05 MaxDP=6.75D-04 DE=-1.19D-03 OVMax= 1.04D-03

 Cycle   6  Pass 0  IDiag  1:
 E= -164.262124261613     Delta-E=       -0.000011383580 Rises=F Damp=F
 DIIS: error= 7.73D-06 at cycle   6 NSaved=   6.
 NSaved= 6 IEnMin= 6 EnMin= -164.262124261613     IErMin= 6 ErrMin= 7.73D-06
 ErrMax= 7.73D-06  0.00D+00 EMaxC= 1.00D-01 BMatC= 1.33D-09 BMatP= 1.53D-05
 IDIUse=1 WtCom= 1.00D+00 WtEn= 0.00D+00
 Coeff-Com:  0.520D-04-0.161D-03-0.721D-03-0.305D-02-0.142D-01 0.102D+01
 Coeff:      0.520D-04-0.161D-03-0.721D-03-0.305D-02-0.142D-01 0.102D+01
 Gap=     0.279 Goal=   None    Shift=    0.000
 RMSDP=6.40D-07 MaxDP=1.37D-05 DE=-1.14D-05 OVMax= 1.13D-05

 Initial convergence to 1.0D-05 achieved.  Increase integral accuracy.
 Cycle   7  Pass 1  IDiag  1:
 E= -164.262122207783     Delta-E=        0.000002053830 Rises=F Damp=F
 DIIS: error= 4.93D-06 at cycle   1 NSaved=   1.
 NSaved= 1 IEnMin= 1 EnMin= -164.262122207783     IErMin= 1 ErrMin= 4.93D-06
 ErrMax= 4.93D-06  0.00D+00 EMaxC= 1.00D-01 BMatC= 9.81D-10 BMatP= 9.81D-10
 IDIUse=1 WtCom= 1.00D+00 WtEn= 0.00D+00
 Coeff-Com:  0.100D+01
 Coeff:      0.100D+01
 Gap=     0.279 Goal=   None    Shift=    0.000
 RMSDP=6.40D-07 MaxDP=1.37D-05 DE= 2.05D-06 OVMax= 1.43D-05

 Cycle   8  Pass 1  IDiag  1:
 E= -164.262122208651     Delta-E=       -0.000000000867 Rises=F Damp=F
 DIIS: error= 9.69D-07 at cycle   2 NSaved=   2.
 NSaved= 2 IEnMin= 2 EnMin= -164.262122208651     IErMin= 2 ErrMin= 9.69D-07
 ErrMax= 9.69D-07  0.00D+00 EMaxC= 1.00D-01 BMatC= 4.36D-11 BMatP= 9.81D-10
 IDIUse=1 WtCom= 1.00D+00 WtEn= 0.00D+00
 Coeff-Com:  0.457D-01 0.954D+00
 Coeff:      0.457D-01 0.954D+00
 Gap=     0.279 Goal=   None    Shift=    0.000
 RMSDP=1.68D-07 MaxDP=2.34D-06 DE=-8.67D-10 OVMax= 3.03D-06

 Cycle   9  Pass 1  IDiag  1:
 E= -164.262122208643     Delta-E=        0.000000000008 Rises=F Damp=F
 DIIS: error= 1.23D-06 at cycle   3 NSaved=   3.
 NSaved= 3 IEnMin= 2 EnMin= -164.262122208651     IErMin= 2 ErrMin= 9.69D-07
 ErrMax= 1.23D-06  0.00D+00 EMaxC= 1.00D-01 BMatC= 6.12D-11 BMatP= 4.36D-11
 IDIUse=1 WtCom= 1.00D+00 WtEn= 0.00D+00
 Coeff-Com: -0.719D-02 0.548D+00 0.459D+00
 Coeff:     -0.719D-02 0.548D+00 0.459D+00
 Gap=     0.279 Goal=   None    Shift=    0.000
 RMSDP=8.47D-08 MaxDP=1.01D-06 DE= 8.13D-12 OVMax= 2.21D-06

 Cycle  10  Pass 1  IDiag  1:
 E= -164.262122208684     Delta-E=       -0.000000000042 Rises=F Damp=F
 DIIS: error= 4.72D-07 at cycle   4 NSaved=   4.
 NSaved= 4 IEnMin= 4 EnMin= -164.262122208684     IErMin= 4 ErrMin= 4.72D-07
 ErrMax= 4.72D-07  0.00D+00 EMaxC= 1.00D-01 BMatC= 4.17D-12 BMatP= 4.36D-11
 IDIUse=1 WtCom= 1.00D+00 WtEn= 0.00D+00
 Coeff-Com: -0.494D-02 0.253D+00 0.270D+00 0.481D+00
 Coeff:     -0.494D-02 0.253D+00 0.270D+00 0.481D+00
 Gap=     0.279 Goal=   None    Shift=    0.000
 RMSDP=2.41D-08 MaxDP=3.86D-07 DE=-4.17D-11 OVMax= 6.10D-07

 Cycle  11  Pass 1  IDiag  1:
 E= -164.262122208687     Delta-E=       -0.000000000003 Rises=F Damp=F
 DIIS: error= 4.05D-08 at cycle   5 NSaved=   5.
 NSaved= 5 IEnMin= 5 EnMin= -164.262122208687     IErMin= 5 ErrMin= 4.05D-08
 ErrMax= 4.05D-08  0.00D+00 EMaxC= 1.00D-01 BMatC= 3.89D-14 BMatP= 4.17D-12
 IDIUse=1 WtCom= 1.00D+00 WtEn= 0.00D+00
 Coeff-Com: -0.143D-02 0.150D-01 0.226D-01 0.105D+00 0.858D+00
 Coeff:     -0.143D-02 0.150D-01 0.226D-01 0.105D+00 0.858D+00
 Gap=     0.279 Goal=   None    Shift=    0.000
 RMSDP=2.91D-09 MaxDP=3.85D-08 DE=-2.70D-12 OVMax= 5.99D-08

 SCF Done:  E(RB3LYP) =  -164.262122209     A.U. after   11 cycles
            NFock= 11  Conv=0.29D-08     -V/T= 2.0019
 KE= 1.639574631246D+02 PE=-5.011859067101D+02 EE= 1.180997226361D+02
 Leave Link  502 at Wed May 27 13:05:58 2015, MaxMem=  2097152000 cpu:         2.7
 (Enter /opt/gaussian/g09/l601.exe)
 Copying SCF densities to generalized density rwf, IOpCl= 0 IROHF=0.

 **********************************************************************

            Population analysis using the SCF density.

 **********************************************************************

 Orbital symmetries:
       Occupied  (A) (B) (A) (A) (B) (A) (B) (A) (B) (A) (B)
       Virtual   (A) (B) (A) (B) (A) (B) (A) (B) (A) (A) (B) (A)
                 (B) (B) (A) (B) (A) (B) (A) (B) (B) (A) (A) (B)
                 (A) (B) (A) (B) (A) (B) (A) (B) (A) (B) (A) (B)
                 (A) (A) (B) (B) (A) (B) (A)
 The electronic state is 1-A.
 Alpha  occ. eigenvalues --  -14.18207 -14.03737 -14.03734  -0.82969  -0.65870
 Alpha  occ. eigenvalues --   -0.21270  -0.21264  -0.18706  -0.13348   0.03308
 Alpha  occ. eigenvalues --    0.03310
 Alpha virt. eigenvalues --    0.31186   0.31211   0.52142   0.66654   0.72423
 Alpha virt. eigenvalues --    0.77563   0.77566   0.89085   0.89090   0.91359
 Alpha virt. eigenvalues --    0.95033   0.99447   0.99449   1.27874   1.41417
 Alpha virt. eigenvalues --    1.50335   1.83466   1.83859   1.93037   1.93037
 Alpha virt. eigenvalues --    2.24227   2.24227   2.51018   2.51019   2.55194
 Alpha virt. eigenvalues --    2.55236   2.72981   3.02972   3.34406   3.34414
 Alpha virt. eigenvalues --    3.78047   3.78116   3.83923   4.15328   4.15339
 Alpha virt. eigenvalues --    4.19652   4.19678   4.44354   4.63909   5.08939
 Alpha virt. eigenvalues --   35.26408  35.79059  36.46761
          Condensed to atoms (all electrons):
 Mulliken charges:
               1
     1  C    0.000000
     2  H    0.000000
     3  H    0.000000
     4  C    0.000000
     5  H    0.000000
     6  H    0.000000
     7  C    0.000000
     8  H    0.000000
     9  H    0.000000
    10  C    0.000000
    11  H    0.000000
    12  H    0.000000
    13  C    0.000000
    14  H    0.000000
    15  H    0.000000
    16  N    0.000000
    17  H    0.000000
    18  N    0.000000
    19  H    0.000000
    20  N    0.000000
    21  H    0.000000
    22  N    0.000000
    23  H    0.000000
    24  C    0.000000
    25  H    0.000000
    26  H    0.000000
    27  C    0.000000
    28  H    0.000000
    29  H    0.000000
    30  C    0.000000
    31  H    0.000000
    32  H    0.000000
    33  N   -0.545331
    34  N    0.090662
    35  N   -0.545331
    36  C    0.000000
    37  H    0.000000
    38  H    0.000000
    39  C    0.000000
    40  H    0.000000
    41  H    0.000000
    42  C    0.000000
    43  H    0.000000
    44  H    0.000000
    45  C    0.000000
    46  H    0.000000
    47  H    0.000000
    48  C    0.000000
    49  H    0.000000
    50  H    0.000000
    51  N    0.000000
    52  H    0.000000
    53  N    0.000000
    54  H    0.000000
    55  N    0.000000
    56  H    0.000000
    57  N    0.000000
    58  H    0.000000
    59  C    0.000000
    60  H    0.000000
    61  H    0.000000
    62  C    0.000000
    63  H    0.000000
    64  H    0.000000
    65  C    0.000000
    66  H    0.000000
    67  H    0.000000
    68  Rb   0.000000
 Sum of Mulliken charges =  -1.00000
 Mulliken charges with hydrogens summed into heavy atoms:
               1
     1  C    0.000000
     4  C    0.000000
     7  C    0.000000
    10  C    0.000000
    13  C    0.000000
    16  N    0.000000
    18  N    0.000000
    20  N    0.000000
    22  N    0.000000
    24  C    0.000000
    27  C    0.000000
    30  C    0.000000
    33  N   -0.545331
    34  N    0.090662
    35  N   -0.545331
    36  C    0.000000
    39  C    0.000000
    42  C    0.000000
    45  C    0.000000
    48  C    0.000000
    51  N    0.000000
    53  N    0.000000
    55  N    0.000000
    57  N    0.000000
    59  C    0.000000
    62  C    0.000000
    65  C    0.000000
    68  Rb   0.000000
         Mulliken charges condensed to fragments:
      1      0.000000
      2     -1.000000
 Electronic spatial extent (au):  <R**2>=            907.1760
 Charge=             -1.0000 electrons
 Dipole moment (field-independent basis, Debye):
    X=              0.0000    Y=              0.0000    Z=            -15.1807  Tot=             15.1807
 Quadrupole moment (field-independent basis, Debye-Ang):
   XX=            -29.4486   YY=            -18.4577   ZZ=            -66.1336
   XY=             -1.8490   XZ=              0.0000   YZ=              0.0000
 Traceless Quadrupole moment (field-independent basis, Debye-Ang):
   XX=              8.5647   YY=             19.5556   ZZ=            -28.1203
   XY=             -1.8490   XZ=              0.0000   YZ=              0.0000
 Octapole moment (field-independent basis, Debye-Ang**2):
  XXX=              0.0000  YYY=              0.0000  ZZZ=           -324.1312  XYY=              0.0000
  XXY=              0.0000  XXZ=            -93.2580  XZZ=              0.0000  YZZ=              0.0000
  YYZ=            -58.4577  XYZ=             -5.8545
 Hexadecapole moment (field-independent basis, Debye-Ang**3):
 XXXX=           -146.7251 YYYY=            -19.5690 ZZZZ=          -1588.2939 XXXY=            -11.7524
 XXXZ=              0.0000 YYYX=             -9.6392 YYYZ=              0.0000 ZZZX=              0.0000
 ZZZY=              0.0000 XXYY=            -25.8591 XXZZ=           -320.3098 YYZZ=           -191.1400
 XXYZ=              0.0000 YYXZ=              0.0000 ZZXY=            -21.7303
 N-N= 5.486659874082D+01 E-N=-5.011859085646D+02  KE= 1.639574631246D+02
 Symmetry A    KE= 1.042755028501D+02
 Symmetry B    KE= 5.968196027448D+01
 No NMR shielding tensors so no spin-rotation constants.
 Leave Link  601 at Wed May 27 13:05:58 2015, MaxMem=  2097152000 cpu:         1.5
 (Enter /opt/gaussian/g09/l122.exe)
 CPIOFr:  IOpCl= 0 IRwI=-1 IRwCP=  731 ICalc=  4 LCPTot=      859415 Len1MO=     2224763 IndFrg=    11983230
 Restoring MOs from calculation   1 to rwf.
 CPIOFr:  IOpCl= 0 IRwI=-2 IRwCP=  731 ICalc=  0 LCPTot=      859415 Len1MO=     2224763 IndFrg=     3084178
 Counterpoise corrected energy =   -1260.437357500541
                   BSSE energy =       0.016810861510
               sum of monomers =   -1260.299036552633
           complexation energy =     -97.35 kcal/mole (raw)
           complexation energy =     -86.80 kcal/mole (corrected)
 Leave Link  122 at Wed May 27 13:05:58 2015, MaxMem=  2097152000 cpu:         0.5
 (Enter /opt/gaussian/g09/l9999.exe)
 1\1\GINC-COMET-17-41\SP\RB3LYP\GenECP\C16H40N11Rb1\GRIDCHEM\27-May-201
 5\0\\#p b3lyp/genecp counterpoise=2\\BSSE\\0,1\C,0,-1.942784,3.176953,
 1.095057\H,0,-2.349972,4.004941,1.703674\H,0,-2.781132,2.505177,0.8800
 35\C,0,0.144051,3.18094,2.42174\H,0,0.496038,3.897836,1.678497\H,0,-0.
 201954,3.783152,3.280832\C,0,1.334293,2.331999,2.890897\H,0,1.976443,2
 .981456,3.512817\H,0,0.964507,1.539845,3.552619\C,0,2.951404,2.593187,
 1.034652\H,0,2.494239,3.584886,1.022258\H,0,3.931241,2.722035,1.522865
 \C,0,1.439462,3.388701,-1.647111\H,0,1.465314,4.092534,-0.807532\H,0,2
 .058679,3.847258,-2.440248\N,0,-0.94841,2.791135,-1.171647\H,0,-1.6992
 13,2.303637,-1.649581\N,0,-0.934276,2.391809,1.823887\H,0,-1.407118,1.
 883977,2.565474\N,0,2.072689,1.692091,1.796693\H,0,2.635234,0.941683,2
 .182873\N,0,1.954686,2.104372,-1.196891\H,0,2.011012,1.444683,-1.97456
 1\C,0,3.179847,2.142342,-0.419065\H,0,3.608401,1.133685,-0.416927\H,0,
 3.955316,2.805029,-0.849487\C,0,0.,3.2869,-2.17228\H,0,-0.030668,2.590
 049,-3.011526\H,0,-0.286494,4.276351,-2.570794\C,0,-1.443834,3.780377,
 -0.228212\H,0,-2.266127,4.397233,-0.633108\H,0,-0.633643,4.483312,-0.0
 15238\N,0,-1.165873,0.190878,-3.16242\N,0,0.,0.,-3.178957\N,0,1.165873
 ,-0.190878,-3.16242\C,0,-1.334293,-2.331999,2.890897\H,0,-1.976443,-2.
 981456,3.512817\H,0,-0.964507,-1.539845,3.552619\C,0,-2.951404,-2.5931
 87,1.034652\H,0,-2.494239,-3.584886,1.022258\H,0,-3.931241,-2.722035,1
 .522865\C,0,-3.179847,-2.142342,-0.419065\H,0,-3.955316,-2.805029,-0.8
 49487\H,0,-3.608401,-1.133685,-0.416927\C,0,-1.439462,-3.388701,-1.647
 111\H,0,-1.465314,-4.092534,-0.807532\H,0,-2.058679,-3.847258,-2.44024
 8\C,0,1.443834,-3.780377,-0.228212\H,0,0.633643,-4.483312,-0.015238\H,
 0,2.266127,-4.397233,-0.633108\N,0,0.934276,-2.391809,1.823887\H,0,1.4
 07118,-1.883977,2.565474\N,0,-2.072689,-1.692091,1.796693\H,0,-2.63523
 4,-0.941683,2.182873\N,0,-1.954686,-2.104372,-1.196891\H,0,-2.011012,-
 1.444683,-1.974561\N,0,0.94841,-2.791135,-1.171647\H,0,1.699213,-2.303
 637,-1.649581\C,0,0.,-3.2869,-2.17228\H,0,0.030668,-2.590049,-3.011526
 \H,0,0.286494,-4.276351,-2.570794\C,0,1.942784,-3.176953,1.095057\H,0,
 2.781132,-2.505177,0.880035\H,0,2.349972,-4.004941,1.703674\C,0,-0.144
 051,-3.18094,2.42174\H,0,0.201954,-3.783152,3.280832\H,0,-0.496038,-3.
 897836,1.678497\Rb,0,0.,0.,-0.048001\\Version=ES64L-G09RevD.01\State=1
 -A\HF=-164.2621222\RMSD=2.905e-09\Dipole=0.,0.,4.4084267\Quadrupole=5.
 2360622,9.8532808,-15.0893429,-0.4414631,0.,0.\PG=C02 [C2(Rb1N1),X(C16
 H40N10)]\\@


 TO DRY ONE'S EYES AND LAUGH AT A FALL
 AND BAFFLED, GET UP AND BEGIN AGAIN.
           R. BROWNING
 Job cpu time:       0 days  1 hours 35 minutes 50.3 seconds.
 File lengths (MBytes):  RWF=    454 Int=      0 D2E=      0 Chk=    118 Scr=      1
 Normal termination of Gaussian 09 at Wed May 27 13:05:58 2015.
