 Entering Gaussian System, Link 0=g09
 Input=input.com
 Output=/scratch/gridchem/511876/mh39.out
 Initial command:
 /opt/gaussian/g09/l1.exe "/scratch/gridchem/511876/Gau-28492.inp" -scrdir="/scratch/gridchem/511876/"
 Entering Link 1 = /opt/gaussian/g09/l1.exe PID=     28493.
  
 Copyright (c) 1988,1990,1992,1993,1995,1998,2003,2009,2013,
            Gaussian, Inc.  All Rights Reserved.
  
 This is part of the Gaussian(R) 09 program.  It is based on
 the Gaussian(R) 03 system (copyright 2003, Gaussian, Inc.),
 the Gaussian(R) 98 system (copyright 1998, Gaussian, Inc.),
 the Gaussian(R) 94 system (copyright 1995, Gaussian, Inc.),
 the Gaussian 92(TM) system (copyright 1992, Gaussian, Inc.),
 the Gaussian 90(TM) system (copyright 1990, Gaussian, Inc.),
 the Gaussian 88(TM) system (copyright 1988, Gaussian, Inc.),
 the Gaussian 86(TM) system (copyright 1986, Carnegie Mellon
 University), and the Gaussian 82(TM) system (copyright 1983,
 Carnegie Mellon University). Gaussian is a federally registered
 trademark of Gaussian, Inc.
  
 This software contains proprietary and confidential information,
 including trade secrets, belonging to Gaussian, Inc.
  
 This software is provided under written license and may be
 used, copied, transmitted, or stored only in accord with that
 written license.
  
 The following legend is applicable only to US Government
 contracts under FAR:
  
                    RESTRICTED RIGHTS LEGEND
  
 Use, reproduction and disclosure by the US Government is
 subject to restrictions as set forth in subparagraphs (a)
 and (c) of the Commercial Computer Software - Restricted
 Rights clause in FAR 52.227-19.
  
 Gaussian, Inc.
 340 Quinnipiac St., Bldg. 40, Wallingford CT 06492
  
  
 ---------------------------------------------------------------
 Warning -- This program may not be used in any manner that
 competes with the business of Gaussian, Inc. or will provide
 assistance to any competitor of Gaussian, Inc.  The licensee
 of this program is prohibited from giving any competitor of
 Gaussian, Inc. access to this program.  By using this program,
 the user acknowledges that Gaussian, Inc. is engaged in the
 business of creating and licensing software in the field of
 computational chemistry and represents and warrants to the
 licensee that it is not a competitor of Gaussian, Inc. and that
 it will not use this program in any manner prohibited above.
 ---------------------------------------------------------------
  

 Cite this work as:
 Gaussian 09, Revision D.01,
 M. J. Frisch, G. W. Trucks, H. B. Schlegel, G. E. Scuseria, 
 M. A. Robb, J. R. Cheeseman, G. Scalmani, V. Barone, B. Mennucci, 
 G. A. Petersson, H. Nakatsuji, M. Caricato, X. Li, H. P. Hratchian, 
 A. F. Izmaylov, J. Bloino, G. Zheng, J. L. Sonnenberg, M. Hada, 
 M. Ehara, K. Toyota, R. Fukuda, J. Hasegawa, M. Ishida, T. Nakajima, 
 Y. Honda, O. Kitao, H. Nakai, T. Vreven, J. A. Montgomery, Jr., 
 J. E. Peralta, F. Ogliaro, M. Bearpark, J. J. Heyd, E. Brothers, 
 K. N. Kudin, V. N. Staroverov, T. Keith, R. Kobayashi, J. Normand, 
 K. Raghavachari, A. Rendell, J. C. Burant, S. S. Iyengar, J. Tomasi, 
 M. Cossi, N. Rega, J. M. Millam, M. Klene, J. E. Knox, J. B. Cross, 
 V. Bakken, C. Adamo, J. Jaramillo, R. Gomperts, R. E. Stratmann, 
 O. Yazyev, A. J. Austin, R. Cammi, C. Pomelli, J. W. Ochterski, 
 R. L. Martin, K. Morokuma, V. G. Zakrzewski, G. A. Voth, 
 P. Salvador, J. J. Dannenberg, S. Dapprich, A. D. Daniels, 
 O. Farkas, J. B. Foresman, J. V. Ortiz, J. Cioslowski, 
 and D. J. Fox, Gaussian, Inc., Wallingford CT, 2013.
 
 ******************************************
 Gaussian 09:  ES64L-G09RevD.01 24-Apr-2013
                27-Apr-2015 
 ******************************************
 %nprocshared=16
 Will use up to   16 processors via shared memory.
 %mem=1000MW
 -----------------------------------------------------------------
 #p opt freq rcam-b3lyp/6-311g(d) scrf=(solvent=dimethylsulfoxide)
 -----------------------------------------------------------------
 1/14=-1,18=20,19=15,26=3,38=1/1,3;
 2/9=110,12=2,17=6,18=5,40=1/2;
 3/5=4,6=6,7=1,11=2,16=1,25=1,30=1,70=2201,71=1,72=21,74=-40,116=1/1,2,3;
 4//1;
 5/5=2,38=5,53=21/2;
 6/7=2,8=2,9=2,10=2,28=1/1;
 7//1,2,3,16;
 1/14=-1,18=20,19=15,26=3/3(2);
 2/9=110/2;
 99//99;
 2/9=110/2;
 3/5=4,6=6,7=1,11=2,16=1,25=1,30=1,70=2205,71=1,72=21,74=-40,116=1/1,2,3;
 4/5=5,16=3,69=1/1;
 5/5=2,38=5,53=21/2;
 7//1,2,3,16;
 1/14=-1,18=20,19=15,26=3/3(-5);
 2/9=110/2;
 6/7=2,8=2,9=2,10=2,19=2,28=1/1;
 99/9=1/99;
 Leave Link    1 at Mon Apr 27 07:07:29 2015, MaxMem=  1048576000 cpu:         0.4
 (Enter /opt/gaussian/g09/l101.exe)
 ---------------------------------------------
 Triazole 8c opt freq cam-b3lyp/6-311g(d) DMSO
 ---------------------------------------------
 Symbolic Z-matrix:
 Charge =  0 Multiplicity = 1
 C                     7.11957  -1.75946   0.13447 
 C                     8.12339  -0.83373   0.12542 
 C                     5.77923  -1.27149   0.08881 
 C                     5.49772   0.11874   0.03619 
 C                     7.87796   0.5917    0.07288 
 C                     6.54416   1.10237   0.02674 
 N                     4.61459  -1.94405   0.08455 
 C                     2.30118  -1.24915   0.00695 
 C                     1.87198  -2.59146   0.05427 
 C                     1.40251  -0.18023  -0.06423 
 C                     0.51747  -2.90259   0.03109 
 C                     0.05398  -0.51569  -0.08584 
 C                    -0.40827  -1.85441  -0.04 
 H                     1.75376   0.84291  -0.10033 
 H                     0.18553  -3.93522   0.06721 
 C                    -2.17594  -0.59334  -0.14556 
 N                     3.69792  -0.9703    0.03136 
 N                     4.16558   0.28346   0.0005 
 H                     7.32143  -2.82477   0.17414 
 H                     9.15898  -1.16177   0.15849 
 C                     8.9485    1.51485   0.06554 
 C                     8.71276   2.87891   0.01507 
 C                     7.39359   3.37042  -0.03009 
 C                     6.32175   2.49242  -0.02429 
 H                     7.21634   4.44138  -0.06952 
 H                     5.30179   2.8637   -0.05881 
 N                    -1.78753  -1.86994  -0.07847 
 N                    -1.09151   0.25565  -0.15219 
 C                    -3.56047  -0.17794  -0.20276 
 C                    -3.9561    1.17209  -0.28647 
 C                    -5.28015   1.56029  -0.32898 
 C                    -6.32513   0.59001  -0.29778 
 C                    -5.93881  -0.76603  -0.20234 
 C                    -4.5995   -1.15098  -0.16249 
 H                    -5.50445   2.61695  -0.38279 
 H                    -6.66897  -1.56309  -0.15515 
 N                    -7.65031   0.9591   -0.37644 
 C                    -8.71885  -0.04147  -0.29658 
 C                    -9.05723  -0.51345   1.12404 
 H                    -8.45061  -0.8988   -0.92395 
 H                    -9.60817   0.40119  -0.75422 
 H                    -9.83719  -1.28263   1.08457 
 H                    -8.18223  -0.94185   1.62294 
 H                    -9.42722   0.31445   1.73729 
 C                    -8.04266   2.37025  -0.45007 
 C                    -8.06607   3.10525   0.8968 
 H                    -9.03932   2.40209  -0.89972 
 H                    -7.37971   2.88899  -1.15079 
 H                    -8.34337   4.15475   0.74425 
 H                    -8.79573   2.65652   1.57849 
 H                    -7.08567   3.07959   1.38327 
 H                     2.61461  -3.37713   0.1087 
 H                    -3.34982  -2.59202  -0.06031 
 H                    -3.20173   1.95365  -0.3183 
 H                    -1.12127   1.26458  -0.18745 
 O                    -4.34166  -2.47586  -0.0798 
 H                     9.54815   3.57327   0.01022 
 H                     9.96751   1.1375    0.10026 
 
 NAtoms=     58 NQM=       58 NQMF=       0 NMMI=      0 NMMIF=      0
                NMic=       0 NMicF=      0.
                    Isotopes and Nuclear Properties:
 (Nuclear quadrupole moments (NQMom) in fm**2, nuclear magnetic moments (NMagM)
  in nuclear magnetons)

  Atom         1           2           3           4           5           6           7           8           9          10
 IAtWgt=          12          12          12          12          12          12          14          12          12          12
 AtmWgt=  12.0000000  12.0000000  12.0000000  12.0000000  12.0000000  12.0000000  14.0030740  12.0000000  12.0000000  12.0000000
 NucSpn=           0           0           0           0           0           0           2           0           0           0
 AtZEff=   0.0000000   0.0000000   0.0000000   0.0000000   0.0000000   0.0000000   0.0000000   0.0000000   0.0000000   0.0000000
 NQMom=    0.0000000   0.0000000   0.0000000   0.0000000   0.0000000   0.0000000   2.0440000   0.0000000   0.0000000   0.0000000
 NMagM=    0.0000000   0.0000000   0.0000000   0.0000000   0.0000000   0.0000000   0.4037610   0.0000000   0.0000000   0.0000000
 AtZNuc=   6.0000000   6.0000000   6.0000000   6.0000000   6.0000000   6.0000000   7.0000000   6.0000000   6.0000000   6.0000000

  Atom        11          12          13          14          15          16          17          18          19          20
 IAtWgt=          12          12          12           1           1          12          14          14           1           1
 AtmWgt=  12.0000000  12.0000000  12.0000000   1.0078250   1.0078250  12.0000000  14.0030740  14.0030740   1.0078250   1.0078250
 NucSpn=           0           0           0           1           1           0           2           2           1           1
 AtZEff=   0.0000000   0.0000000   0.0000000   0.0000000   0.0000000   0.0000000   0.0000000   0.0000000   0.0000000   0.0000000
 NQMom=    0.0000000   0.0000000   0.0000000   0.0000000   0.0000000   0.0000000   2.0440000   2.0440000   0.0000000   0.0000000
 NMagM=    0.0000000   0.0000000   0.0000000   2.7928460   2.7928460   0.0000000   0.4037610   0.4037610   2.7928460   2.7928460
 AtZNuc=   6.0000000   6.0000000   6.0000000   1.0000000   1.0000000   6.0000000   7.0000000   7.0000000   1.0000000   1.0000000

  Atom        21          22          23          24          25          26          27          28          29          30
 IAtWgt=          12          12          12          12           1           1          14          14          12          12
 AtmWgt=  12.0000000  12.0000000  12.0000000  12.0000000   1.0078250   1.0078250  14.0030740  14.0030740  12.0000000  12.0000000
 NucSpn=           0           0           0           0           1           1           2           2           0           0
 AtZEff=   0.0000000   0.0000000   0.0000000   0.0000000   0.0000000   0.0000000   0.0000000   0.0000000   0.0000000   0.0000000
 NQMom=    0.0000000   0.0000000   0.0000000   0.0000000   0.0000000   0.0000000   2.0440000   2.0440000   0.0000000   0.0000000
 NMagM=    0.0000000   0.0000000   0.0000000   0.0000000   2.7928460   2.7928460   0.4037610   0.4037610   0.0000000   0.0000000
 AtZNuc=   6.0000000   6.0000000   6.0000000   6.0000000   1.0000000   1.0000000   7.0000000   7.0000000   6.0000000   6.0000000

  Atom        31          32          33          34          35          36          37          38          39          40
 IAtWgt=          12          12          12          12           1           1          14          12          12           1
 AtmWgt=  12.0000000  12.0000000  12.0000000  12.0000000   1.0078250   1.0078250  14.0030740  12.0000000  12.0000000   1.0078250
 NucSpn=           0           0           0           0           1           1           2           0           0           1
 AtZEff=   0.0000000   0.0000000   0.0000000   0.0000000   0.0000000   0.0000000   0.0000000   0.0000000   0.0000000   0.0000000
 NQMom=    0.0000000   0.0000000   0.0000000   0.0000000   0.0000000   0.0000000   2.0440000   0.0000000   0.0000000   0.0000000
 NMagM=    0.0000000   0.0000000   0.0000000   0.0000000   2.7928460   2.7928460   0.4037610   0.0000000   0.0000000   2.7928460
 AtZNuc=   6.0000000   6.0000000   6.0000000   6.0000000   1.0000000   1.0000000   7.0000000   6.0000000   6.0000000   1.0000000

  Atom        41          42          43          44          45          46          47          48          49          50
 IAtWgt=           1           1           1           1          12          12           1           1           1           1
 AtmWgt=   1.0078250   1.0078250   1.0078250   1.0078250  12.0000000  12.0000000   1.0078250   1.0078250   1.0078250   1.0078250
 NucSpn=           1           1           1           1           0           0           1           1           1           1
 AtZEff=   0.0000000   0.0000000   0.0000000   0.0000000   0.0000000   0.0000000   0.0000000   0.0000000   0.0000000   0.0000000
 NQMom=    0.0000000   0.0000000   0.0000000   0.0000000   0.0000000   0.0000000   0.0000000   0.0000000   0.0000000   0.0000000
 NMagM=    2.7928460   2.7928460   2.7928460   2.7928460   0.0000000   0.0000000   2.7928460   2.7928460   2.7928460   2.7928460
 AtZNuc=   1.0000000   1.0000000   1.0000000   1.0000000   6.0000000   6.0000000   1.0000000   1.0000000   1.0000000   1.0000000

  Atom        51          52          53          54          55          56          57          58
 IAtWgt=           1           1           1           1           1          16           1           1
 AtmWgt=   1.0078250   1.0078250   1.0078250   1.0078250   1.0078250  15.9949146   1.0078250   1.0078250
 NucSpn=           1           1           1           1           1           0           1           1
 AtZEff=   0.0000000   0.0000000   0.0000000   0.0000000   0.0000000   0.0000000   0.0000000   0.0000000
 NQMom=    0.0000000   0.0000000   0.0000000   0.0000000   0.0000000   0.0000000   0.0000000   0.0000000
 NMagM=    2.7928460   2.7928460   2.7928460   2.7928460   2.7928460   0.0000000   2.7928460   2.7928460
 AtZNuc=   1.0000000   1.0000000   1.0000000   1.0000000   1.0000000   8.0000000   1.0000000   1.0000000
 Leave Link  101 at Mon Apr 27 07:07:29 2015, MaxMem=  1048576000 cpu:         2.5
 (Enter /opt/gaussian/g09/l103.exe)

 GradGradGradGradGradGradGradGradGradGradGradGradGradGradGradGradGradGrad
 Berny optimization.
 Initialization pass.
                           ----------------------------
                           !    Initial Parameters    !
                           ! (Angstroms and Degrees)  !
 --------------------------                            --------------------------
 ! Name  Definition              Value          Derivative Info.                !
 --------------------------------------------------------------------------------
 ! R1    R(1,2)                  1.3656         estimate D2E/DX2                !
 ! R2    R(1,3)                  1.4271         estimate D2E/DX2                !
 ! R3    R(1,19)                 1.085          estimate D2E/DX2                !
 ! R4    R(2,5)                  1.4474         estimate D2E/DX2                !
 ! R5    R(2,20)                 1.0868         estimate D2E/DX2                !
 ! R6    R(3,4)                  1.4194         estimate D2E/DX2                !
 ! R7    R(3,7)                  1.3449         estimate D2E/DX2                !
 ! R8    R(4,6)                  1.4362         estimate D2E/DX2                !
 ! R9    R(4,18)                 1.3428         estimate D2E/DX2                !
 ! R10   R(5,6)                  1.429          estimate D2E/DX2                !
 ! R11   R(5,21)                 1.4136         estimate D2E/DX2                !
 ! R12   R(6,24)                 1.4087         estimate D2E/DX2                !
 ! R13   R(7,17)                 1.3384         estimate D2E/DX2                !
 ! R14   R(8,9)                  1.41           estimate D2E/DX2                !
 ! R15   R(8,10)                 1.3983         estimate D2E/DX2                !
 ! R16   R(8,17)                 1.4245         estimate D2E/DX2                !
 ! R17   R(9,11)                 1.39           estimate D2E/DX2                !
 ! R18   R(9,52)                 1.0825         estimate D2E/DX2                !
 ! R19   R(10,12)                1.3898         estimate D2E/DX2                !
 ! R20   R(10,14)                1.0824         estimate D2E/DX2                !
 ! R21   R(11,13)                1.4003         estimate D2E/DX2                !
 ! R22   R(11,15)                1.0853         estimate D2E/DX2                !
 ! R23   R(12,13)                1.417          estimate D2E/DX2                !
 ! R24   R(12,28)                1.3826         estimate D2E/DX2                !
 ! R25   R(13,27)                1.3799         estimate D2E/DX2                !
 ! R26   R(16,27)                1.3361         estimate D2E/DX2                !
 ! R27   R(16,28)                1.3772         estimate D2E/DX2                !
 ! R28   R(16,29)                1.4466         estimate D2E/DX2                !
 ! R29   R(17,18)                1.3385         estimate D2E/DX2                !
 ! R30   R(21,22)                1.3852         estimate D2E/DX2                !
 ! R31   R(21,58)                1.0872         estimate D2E/DX2                !
 ! R32   R(22,23)                1.4085         estimate D2E/DX2                !
 ! R33   R(22,57)                1.0863         estimate D2E/DX2                !
 ! R34   R(23,24)                1.3856         estimate D2E/DX2                !
 ! R35   R(23,25)                1.0862         estimate D2E/DX2                !
 ! R36   R(24,26)                1.086          estimate D2E/DX2                !
 ! R37   R(28,55)                1.01           estimate D2E/DX2                !
 ! R38   R(29,30)                1.4093         estimate D2E/DX2                !
 ! R39   R(29,34)                1.4241         estimate D2E/DX2                !
 ! R40   R(30,31)                1.3804         estimate D2E/DX2                !
 ! R41   R(30,54)                1.0867         estimate D2E/DX2                !
 ! R42   R(31,32)                1.4263         estimate D2E/DX2                !
 ! R43   R(31,35)                1.0815         estimate D2E/DX2                !
 ! R44   R(32,33)                1.4132         estimate D2E/DX2                !
 ! R45   R(32,37)                1.3779         estimate D2E/DX2                !
 ! R46   R(33,34)                1.3941         estimate D2E/DX2                !
 ! R47   R(33,36)                1.082          estimate D2E/DX2                !
 ! R48   R(34,56)                1.3523         estimate D2E/DX2                !
 ! R49   R(37,38)                1.466          estimate D2E/DX2                !
 ! R50   R(37,45)                1.4665         estimate D2E/DX2                !
 ! R51   R(38,39)                1.5347         estimate D2E/DX2                !
 ! R52   R(38,40)                1.0957         estimate D2E/DX2                !
 ! R53   R(38,41)                1.0937         estimate D2E/DX2                !
 ! R54   R(39,42)                1.0961         estimate D2E/DX2                !
 ! R55   R(39,43)                1.0945         estimate D2E/DX2                !
 ! R56   R(39,44)                1.0947         estimate D2E/DX2                !
 ! R57   R(45,46)                1.5345         estimate D2E/DX2                !
 ! R58   R(45,47)                1.0938         estimate D2E/DX2                !
 ! R59   R(45,48)                1.0953         estimate D2E/DX2                !
 ! R60   R(46,49)                1.0962         estimate D2E/DX2                !
 ! R61   R(46,50)                1.0947         estimate D2E/DX2                !
 ! R62   R(46,51)                1.0948         estimate D2E/DX2                !
 ! R63   R(53,56)                0.9988         estimate D2E/DX2                !
 ! A1    A(2,1,3)              117.2833         estimate D2E/DX2                !
 ! A2    A(2,1,19)             121.9444         estimate D2E/DX2                !
 ! A3    A(3,1,19)             120.7724         estimate D2E/DX2                !
 ! A4    A(1,2,5)              122.9041         estimate D2E/DX2                !
 ! A5    A(1,2,20)             119.7119         estimate D2E/DX2                !
 ! A6    A(5,2,20)             117.3841         estimate D2E/DX2                !
 ! A7    A(1,3,4)              121.4895         estimate D2E/DX2                !
 ! A8    A(1,3,7)              129.9724         estimate D2E/DX2                !
 ! A9    A(4,3,7)              108.5381         estimate D2E/DX2                !
 ! A10   A(3,4,6)              121.772          estimate D2E/DX2                !
 ! A11   A(3,4,18)             108.5353         estimate D2E/DX2                !
 ! A12   A(6,4,18)             129.6927         estimate D2E/DX2                !
 ! A13   A(2,5,6)              120.7575         estimate D2E/DX2                !
 ! A14   A(2,5,21)             120.9918         estimate D2E/DX2                !
 ! A15   A(6,5,21)             118.2507         estimate D2E/DX2                !
 ! A16   A(4,6,5)              115.7937         estimate D2E/DX2                !
 ! A17   A(4,6,24)             124.1275         estimate D2E/DX2                !
 ! A18   A(5,6,24)             120.0788         estimate D2E/DX2                !
 ! A19   A(3,7,17)             103.2619         estimate D2E/DX2                !
 ! A20   A(9,8,10)             122.262          estimate D2E/DX2                !
 ! A21   A(9,8,17)             118.962          estimate D2E/DX2                !
 ! A22   A(10,8,17)            118.776          estimate D2E/DX2                !
 ! A23   A(8,9,11)             120.6071         estimate D2E/DX2                !
 ! A24   A(8,9,52)             118.9342         estimate D2E/DX2                !
 ! A25   A(11,9,52)            120.4586         estimate D2E/DX2                !
 ! A26   A(8,10,12)            116.0965         estimate D2E/DX2                !
 ! A27   A(8,10,14)            121.0478         estimate D2E/DX2                !
 ! A28   A(12,10,14)           122.8557         estimate D2E/DX2                !
 ! A29   A(9,11,13)            118.5251         estimate D2E/DX2                !
 ! A30   A(9,11,15)            120.6959         estimate D2E/DX2                !
 ! A31   A(13,11,15)           120.779          estimate D2E/DX2                !
 ! A32   A(10,12,13)           122.96           estimate D2E/DX2                !
 ! A33   A(10,12,28)           132.0678         estimate D2E/DX2                !
 ! A34   A(13,12,28)           104.9722         estimate D2E/DX2                !
 ! A35   A(11,13,12)           119.5492         estimate D2E/DX2                !
 ! A36   A(11,13,27)           130.8302         estimate D2E/DX2                !
 ! A37   A(12,13,27)           109.6205         estimate D2E/DX2                !
 ! A38   A(27,16,28)           111.121          estimate D2E/DX2                !
 ! A39   A(27,16,29)           123.6821         estimate D2E/DX2                !
 ! A40   A(28,16,29)           125.1969         estimate D2E/DX2                !
 ! A41   A(7,17,8)             121.9928         estimate D2E/DX2                !
 ! A42   A(7,17,18)            116.3023         estimate D2E/DX2                !
 ! A43   A(8,17,18)            121.7049         estimate D2E/DX2                !
 ! A44   A(4,18,17)            103.3624         estimate D2E/DX2                !
 ! A45   A(5,21,22)            120.956          estimate D2E/DX2                !
 ! A46   A(5,21,58)            118.8805         estimate D2E/DX2                !
 ! A47   A(22,21,58)           120.1635         estimate D2E/DX2                !
 ! A48   A(21,22,23)           120.2784         estimate D2E/DX2                !
 ! A49   A(21,22,57)           119.9166         estimate D2E/DX2                !
 ! A50   A(23,22,57)           119.805          estimate D2E/DX2                !
 ! A51   A(22,23,24)           120.216          estimate D2E/DX2                !
 ! A52   A(22,23,25)           119.8711         estimate D2E/DX2                !
 ! A53   A(24,23,25)           119.9129         estimate D2E/DX2                !
 ! A54   A(6,24,23)            120.22           estimate D2E/DX2                !
 ! A55   A(6,24,26)            119.131          estimate D2E/DX2                !
 ! A56   A(23,24,26)           120.649          estimate D2E/DX2                !
 ! A57   A(13,27,16)           106.3337         estimate D2E/DX2                !
 ! A58   A(12,28,16)           107.9526         estimate D2E/DX2                !
 ! A59   A(12,28,55)           125.6903         estimate D2E/DX2                !
 ! A60   A(16,28,55)           126.353          estimate D2E/DX2                !
 ! A61   A(16,29,30)           123.0998         estimate D2E/DX2                !
 ! A62   A(16,29,34)           120.0641         estimate D2E/DX2                !
 ! A63   A(30,29,34)           116.8335         estimate D2E/DX2                !
 ! A64   A(29,30,31)           122.7162         estimate D2E/DX2                !
 ! A65   A(29,30,54)           119.7237         estimate D2E/DX2                !
 ! A66   A(31,30,54)           117.56           estimate D2E/DX2                !
 ! A67   A(30,31,32)           120.7127         estimate D2E/DX2                !
 ! A68   A(30,31,35)           118.3715         estimate D2E/DX2                !
 ! A69   A(32,31,35)           120.9154         estimate D2E/DX2                !
 ! A70   A(31,32,33)           116.9972         estimate D2E/DX2                !
 ! A71   A(31,32,37)           121.4093         estimate D2E/DX2                !
 ! A72   A(33,32,37)           121.5872         estimate D2E/DX2                !
 ! A73   A(32,33,34)           121.972          estimate D2E/DX2                !
 ! A74   A(32,33,36)           121.6909         estimate D2E/DX2                !
 ! A75   A(34,33,36)           116.3371         estimate D2E/DX2                !
 ! A76   A(29,34,33)           120.7606         estimate D2E/DX2                !
 ! A77   A(29,34,56)           122.1441         estimate D2E/DX2                !
 ! A78   A(33,34,56)           117.0949         estimate D2E/DX2                !
 ! A79   A(32,37,38)           121.0014         estimate D2E/DX2                !
 ! A80   A(32,37,45)           121.1937         estimate D2E/DX2                !
 ! A81   A(38,37,45)           117.675          estimate D2E/DX2                !
 ! A82   A(37,38,39)           114.8984         estimate D2E/DX2                !
 ! A83   A(37,38,40)           108.9287         estimate D2E/DX2                !
 ! A84   A(37,38,41)           107.075          estimate D2E/DX2                !
 ! A85   A(39,38,40)           110.0808         estimate D2E/DX2                !
 ! A86   A(39,38,41)           109.4204         estimate D2E/DX2                !
 ! A87   A(40,38,41)           106.031          estimate D2E/DX2                !
 ! A88   A(38,39,42)           109.8373         estimate D2E/DX2                !
 ! A89   A(38,39,43)           111.4705         estimate D2E/DX2                !
 ! A90   A(38,39,44)           111.1296         estimate D2E/DX2                !
 ! A91   A(42,39,43)           108.095          estimate D2E/DX2                !
 ! A92   A(42,39,44)           108.0814         estimate D2E/DX2                !
 ! A93   A(43,39,44)           108.1101         estimate D2E/DX2                !
 ! A94   A(37,45,46)           114.8911         estimate D2E/DX2                !
 ! A95   A(37,45,47)           107.0027         estimate D2E/DX2                !
 ! A96   A(37,45,48)           109.021          estimate D2E/DX2                !
 ! A97   A(46,45,47)           109.448          estimate D2E/DX2                !
 ! A98   A(46,45,48)           110.1152         estimate D2E/DX2                !
 ! A99   A(47,45,48)           105.9461         estimate D2E/DX2                !
 ! A100  A(45,46,49)           109.8946         estimate D2E/DX2                !
 ! A101  A(45,46,50)           111.1236         estimate D2E/DX2                !
 ! A102  A(45,46,51)           111.4156         estimate D2E/DX2                !
 ! A103  A(49,46,50)           108.0886         estimate D2E/DX2                !
 ! A104  A(49,46,51)           108.1086         estimate D2E/DX2                !
 ! A105  A(50,46,51)           108.0939         estimate D2E/DX2                !
 ! A106  A(34,56,53)           107.7268         estimate D2E/DX2                !
 ! D1    D(3,1,2,5)              0.0273         estimate D2E/DX2                !
 ! D2    D(3,1,2,20)          -179.9655         estimate D2E/DX2                !
 ! D3    D(19,1,2,5)          -179.9997         estimate D2E/DX2                !
 ! D4    D(19,1,2,20)            0.0075         estimate D2E/DX2                !
 ! D5    D(2,1,3,4)             -0.0055         estimate D2E/DX2                !
 ! D6    D(2,1,3,7)            179.9267         estimate D2E/DX2                !
 ! D7    D(19,1,3,4)          -179.9789         estimate D2E/DX2                !
 ! D8    D(19,1,3,7)            -0.0466         estimate D2E/DX2                !
 ! D9    D(1,2,5,6)             -0.0215         estimate D2E/DX2                !
 ! D10   D(1,2,5,21)           179.9906         estimate D2E/DX2                !
 ! D11   D(20,2,5,6)           179.9715         estimate D2E/DX2                !
 ! D12   D(20,2,5,21)           -0.0164         estimate D2E/DX2                !
 ! D13   D(1,3,4,6)             -0.0229         estimate D2E/DX2                !
 ! D14   D(1,3,4,18)           179.9546         estimate D2E/DX2                !
 ! D15   D(7,3,4,6)           -179.9681         estimate D2E/DX2                !
 ! D16   D(7,3,4,18)             0.0094         estimate D2E/DX2                !
 ! D17   D(1,3,7,17)          -179.9433         estimate D2E/DX2                !
 ! D18   D(4,3,7,17)            -0.0043         estimate D2E/DX2                !
 ! D19   D(3,4,6,5)              0.028          estimate D2E/DX2                !
 ! D20   D(3,4,6,24)          -179.9875         estimate D2E/DX2                !
 ! D21   D(18,4,6,5)          -179.9442         estimate D2E/DX2                !
 ! D22   D(18,4,6,24)            0.0403         estimate D2E/DX2                !
 ! D23   D(3,4,18,17)           -0.0099         estimate D2E/DX2                !
 ! D24   D(6,4,18,17)          179.9652         estimate D2E/DX2                !
 ! D25   D(2,5,6,4)             -0.0069         estimate D2E/DX2                !
 ! D26   D(2,5,6,24)          -179.9921         estimate D2E/DX2                !
 ! D27   D(21,5,6,4)           179.9814         estimate D2E/DX2                !
 ! D28   D(21,5,6,24)           -0.0038         estimate D2E/DX2                !
 ! D29   D(2,5,21,22)          179.9916         estimate D2E/DX2                !
 ! D30   D(2,5,21,58)           -0.0055         estimate D2E/DX2                !
 ! D31   D(6,5,21,22)            0.0034         estimate D2E/DX2                !
 ! D32   D(6,5,21,58)         -179.9937         estimate D2E/DX2                !
 ! D33   D(4,6,24,23)         -179.9803         estimate D2E/DX2                !
 ! D34   D(4,6,24,26)            0.0237         estimate D2E/DX2                !
 ! D35   D(5,6,24,23)            0.0036         estimate D2E/DX2                !
 ! D36   D(5,6,24,26)         -179.9924         estimate D2E/DX2                !
 ! D37   D(3,7,17,8)           179.915          estimate D2E/DX2                !
 ! D38   D(3,7,17,18)           -0.0022         estimate D2E/DX2                !
 ! D39   D(10,8,9,11)            0.012          estimate D2E/DX2                !
 ! D40   D(10,8,9,52)          179.9939         estimate D2E/DX2                !
 ! D41   D(17,8,9,11)         -179.9384         estimate D2E/DX2                !
 ! D42   D(17,8,9,52)            0.0436         estimate D2E/DX2                !
 ! D43   D(9,8,10,12)            0.0043         estimate D2E/DX2                !
 ! D44   D(9,8,10,14)         -179.9579         estimate D2E/DX2                !
 ! D45   D(17,8,10,12)         179.9547         estimate D2E/DX2                !
 ! D46   D(17,8,10,14)          -0.0075         estimate D2E/DX2                !
 ! D47   D(9,8,17,7)             0.6696         estimate D2E/DX2                !
 ! D48   D(9,8,17,18)         -179.4176         estimate D2E/DX2                !
 ! D49   D(10,8,17,7)         -179.2824         estimate D2E/DX2                !
 ! D50   D(10,8,17,18)           0.6303         estimate D2E/DX2                !
 ! D51   D(8,9,11,13)           -0.008          estimate D2E/DX2                !
 ! D52   D(8,9,11,15)          179.9862         estimate D2E/DX2                !
 ! D53   D(52,9,11,13)        -179.9896         estimate D2E/DX2                !
 ! D54   D(52,9,11,15)           0.0045         estimate D2E/DX2                !
 ! D55   D(8,10,12,13)          -0.0247         estimate D2E/DX2                !
 ! D56   D(8,10,12,28)        -179.9112         estimate D2E/DX2                !
 ! D57   D(14,10,12,13)        179.9366         estimate D2E/DX2                !
 ! D58   D(14,10,12,28)          0.0502         estimate D2E/DX2                !
 ! D59   D(9,11,13,12)          -0.0116         estimate D2E/DX2                !
 ! D60   D(9,11,13,27)         179.9083         estimate D2E/DX2                !
 ! D61   D(15,11,13,12)        179.9942         estimate D2E/DX2                !
 ! D62   D(15,11,13,27)         -0.0859         estimate D2E/DX2                !
 ! D63   D(10,12,13,11)          0.0291         estimate D2E/DX2                !
 ! D64   D(10,12,13,27)       -179.9065         estimate D2E/DX2                !
 ! D65   D(28,12,13,11)        179.9419         estimate D2E/DX2                !
 ! D66   D(28,12,13,27)          0.0062         estimate D2E/DX2                !
 ! D67   D(10,12,28,16)        179.899          estimate D2E/DX2                !
 ! D68   D(10,12,28,55)         -0.7954         estimate D2E/DX2                !
 ! D69   D(13,12,28,16)         -0.0024         estimate D2E/DX2                !
 ! D70   D(13,12,28,55)        179.3032         estimate D2E/DX2                !
 ! D71   D(11,13,27,16)       -179.9337         estimate D2E/DX2                !
 ! D72   D(12,13,27,16)         -0.0078         estimate D2E/DX2                !
 ! D73   D(28,16,27,13)          0.0063         estimate D2E/DX2                !
 ! D74   D(29,16,27,13)       -179.9835         estimate D2E/DX2                !
 ! D75   D(27,16,28,12)         -0.0024         estimate D2E/DX2                !
 ! D76   D(27,16,28,55)       -179.3022         estimate D2E/DX2                !
 ! D77   D(29,16,28,12)        179.9872         estimate D2E/DX2                !
 ! D78   D(29,16,28,55)          0.6874         estimate D2E/DX2                !
 ! D79   D(27,16,29,30)       -179.3604         estimate D2E/DX2                !
 ! D80   D(27,16,29,34)          1.2383         estimate D2E/DX2                !
 ! D81   D(28,16,29,30)          0.6512         estimate D2E/DX2                !
 ! D82   D(28,16,29,34)       -178.7501         estimate D2E/DX2                !
 ! D83   D(7,17,18,4)            0.0079         estimate D2E/DX2                !
 ! D84   D(8,17,18,4)         -179.9095         estimate D2E/DX2                !
 ! D85   D(5,21,22,23)          -0.0028         estimate D2E/DX2                !
 ! D86   D(5,21,22,57)         179.9997         estimate D2E/DX2                !
 ! D87   D(58,21,22,23)        179.9943         estimate D2E/DX2                !
 ! D88   D(58,21,22,57)         -0.0032         estimate D2E/DX2                !
 ! D89   D(21,22,23,24)          0.0025         estimate D2E/DX2                !
 ! D90   D(21,22,23,25)        179.9981         estimate D2E/DX2                !
 ! D91   D(57,22,23,24)        179.9999         estimate D2E/DX2                !
 ! D92   D(57,22,23,25)         -0.0044         estimate D2E/DX2                !
 ! D93   D(22,23,24,6)          -0.0029         estimate D2E/DX2                !
 ! D94   D(22,23,24,26)        179.9931         estimate D2E/DX2                !
 ! D95   D(25,23,24,6)        -179.9985         estimate D2E/DX2                !
 ! D96   D(25,23,24,26)         -0.0026         estimate D2E/DX2                !
 ! D97   D(16,29,30,31)       -179.424          estimate D2E/DX2                !
 ! D98   D(16,29,30,54)          0.4759         estimate D2E/DX2                !
 ! D99   D(34,29,30,31)         -0.0046         estimate D2E/DX2                !
 ! D100  D(34,29,30,54)        179.8952         estimate D2E/DX2                !
 ! D101  D(16,29,34,33)        179.3132         estimate D2E/DX2                !
 ! D102  D(16,29,34,56)         -0.4365         estimate D2E/DX2                !
 ! D103  D(30,29,34,33)         -0.1247         estimate D2E/DX2                !
 ! D104  D(30,29,34,56)       -179.8744         estimate D2E/DX2                !
 ! D105  D(29,30,31,32)         -0.4061         estimate D2E/DX2                !
 ! D106  D(29,30,31,35)        179.3741         estimate D2E/DX2                !
 ! D107  D(54,30,31,32)        179.692          estimate D2E/DX2                !
 ! D108  D(54,30,31,35)         -0.5278         estimate D2E/DX2                !
 ! D109  D(30,31,32,33)          0.9085         estimate D2E/DX2                !
 ! D110  D(30,31,32,37)       -178.1944         estimate D2E/DX2                !
 ! D111  D(35,31,32,33)       -178.8661         estimate D2E/DX2                !
 ! D112  D(35,31,32,37)          2.031          estimate D2E/DX2                !
 ! D113  D(31,32,33,34)         -1.0513         estimate D2E/DX2                !
 ! D114  D(31,32,33,36)        178.8849         estimate D2E/DX2                !
 ! D115  D(37,32,33,34)        178.0499         estimate D2E/DX2                !
 ! D116  D(37,32,33,36)         -2.0139         estimate D2E/DX2                !
 ! D117  D(31,32,37,38)       -177.849          estimate D2E/DX2                !
 ! D118  D(31,32,37,45)         -2.0893         estimate D2E/DX2                !
 ! D119  D(33,32,37,38)          3.0893         estimate D2E/DX2                !
 ! D120  D(33,32,37,45)        178.849          estimate D2E/DX2                !
 ! D121  D(32,33,34,29)          0.6802         estimate D2E/DX2                !
 ! D122  D(32,33,34,56)       -179.5579         estimate D2E/DX2                !
 ! D123  D(36,33,34,29)       -179.2593         estimate D2E/DX2                !
 ! D124  D(36,33,34,56)          0.5026         estimate D2E/DX2                !
 ! D125  D(29,34,56,53)         -0.2352         estimate D2E/DX2                !
 ! D126  D(33,34,56,53)       -179.9936         estimate D2E/DX2                !
 ! D127  D(32,37,38,39)         79.6245         estimate D2E/DX2                !
 ! D128  D(32,37,38,40)        -44.3856         estimate D2E/DX2                !
 ! D129  D(32,37,38,41)       -158.6373         estimate D2E/DX2                !
 ! D130  D(45,37,38,39)        -96.2799         estimate D2E/DX2                !
 ! D131  D(45,37,38,40)        139.71           estimate D2E/DX2                !
 ! D132  D(45,37,38,41)         25.4583         estimate D2E/DX2                !
 ! D133  D(32,37,45,46)        -80.7198         estimate D2E/DX2                !
 ! D134  D(32,37,45,47)        157.5645         estimate D2E/DX2                !
 ! D135  D(32,37,45,48)         43.4038         estimate D2E/DX2                !
 ! D136  D(38,37,45,46)         95.1763         estimate D2E/DX2                !
 ! D137  D(38,37,45,47)        -26.5394         estimate D2E/DX2                !
 ! D138  D(38,37,45,48)       -140.7001         estimate D2E/DX2                !
 ! D139  D(37,38,39,42)       -177.9818         estimate D2E/DX2                !
 ! D140  D(37,38,39,43)        -58.2            estimate D2E/DX2                !
 ! D141  D(37,38,39,44)         62.4705         estimate D2E/DX2                !
 ! D142  D(40,38,39,42)        -54.5835         estimate D2E/DX2                !
 ! D143  D(40,38,39,43)         65.1984         estimate D2E/DX2                !
 ! D144  D(40,38,39,44)       -174.1312         estimate D2E/DX2                !
 ! D145  D(41,38,39,42)         61.5621         estimate D2E/DX2                !
 ! D146  D(41,38,39,43)       -178.656          estimate D2E/DX2                !
 ! D147  D(41,38,39,44)        -57.9856         estimate D2E/DX2                !
 ! D148  D(37,45,46,49)        178.5478         estimate D2E/DX2                !
 ! D149  D(37,45,46,50)        -61.8621         estimate D2E/DX2                !
 ! D150  D(37,45,46,51)         58.7463         estimate D2E/DX2                !
 ! D151  D(47,45,46,49)        -61.0742         estimate D2E/DX2                !
 ! D152  D(47,45,46,50)         58.5159         estimate D2E/DX2                !
 ! D153  D(47,45,46,51)        179.1243         estimate D2E/DX2                !
 ! D154  D(48,45,46,49)         55.0045         estimate D2E/DX2                !
 ! D155  D(48,45,46,50)        174.5946         estimate D2E/DX2                !
 ! D156  D(48,45,46,51)        -64.797          estimate D2E/DX2                !
 --------------------------------------------------------------------------------
 Trust Radius=3.00D-01 FncErr=1.00D-07 GrdErr=1.00D-06
 Number of steps in this run=    335 maximum allowed number of steps=    348.
 GradGradGradGradGradGradGradGradGradGradGradGradGradGradGradGradGradGrad

 Leave Link  103 at Mon Apr 27 07:07:29 2015, MaxMem=  1048576000 cpu:         0.2
 (Enter /opt/gaussian/g09/l202.exe)
 Stoichiometry    C27H24N6O
 Framework group  C1[X(C27H24N6O)]
 Deg. of freedom   168
 Full point group                 C1      NOp   1
 Largest Abelian subgroup         C1      NOp   1
 Largest concise Abelian subgroup C1      NOp   1
                         Standard orientation:                         
 ---------------------------------------------------------------------
 Center     Atomic      Atomic             Coordinates (Angstroms)
 Number     Number       Type             X           Y           Z
 ---------------------------------------------------------------------
      1          6           0        7.119566   -1.759463    0.134474
      2          6           0        8.123394   -0.833728    0.125418
      3          6           0        5.779233   -1.271493    0.088809
      4          6           0        5.497725    0.118742    0.036194
      5          6           0        7.877961    0.591702    0.072876
      6          6           0        6.544162    1.102365    0.026743
      7          7           0        4.614594   -1.944047    0.084546
      8          6           0        2.301183   -1.249153    0.006951
      9          6           0        1.871979   -2.591456    0.054266
     10          6           0        1.402511   -0.180234   -0.064230
     11          6           0        0.517472   -2.902587    0.031087
     12          6           0        0.053980   -0.515685   -0.085837
     13          6           0       -0.408271   -1.854414   -0.039995
     14          1           0        1.753755    0.842914   -0.100327
     15          1           0        0.185533   -3.935215    0.067214
     16          6           0       -2.175941   -0.593338   -0.145556
     17          7           0        3.697921   -0.970300    0.031355
     18          7           0        4.165577    0.283459    0.000498
     19          1           0        7.321430   -2.824767    0.174144
     20          1           0        9.158977   -1.161768    0.158491
     21          6           0        8.948502    1.514852    0.065543
     22          6           0        8.712762    2.878905    0.015071
     23          6           0        7.393593    3.370419   -0.030090
     24          6           0        6.321751    2.492422   -0.024293
     25          1           0        7.216341    4.441382   -0.069515
     26          1           0        5.301788    2.863701   -0.058807
     27          7           0       -1.787533   -1.869936   -0.078472
     28          7           0       -1.091509    0.255648   -0.152189
     29          6           0       -3.560473   -0.177938   -0.202758
     30          6           0       -3.956103    1.172092   -0.286472
     31          6           0       -5.280154    1.560291   -0.328982
     32          6           0       -6.325129    0.590009   -0.297775
     33          6           0       -5.938810   -0.766030   -0.202339
     34          6           0       -4.599503   -1.150984   -0.162491
     35          1           0       -5.504447    2.616953   -0.382790
     36          1           0       -6.668972   -1.563093   -0.155146
     37          7           0       -7.650308    0.959099   -0.376441
     38          6           0       -8.718851   -0.041470   -0.296580
     39          6           0       -9.057228   -0.513454    1.124041
     40          1           0       -8.450608   -0.898800   -0.923949
     41          1           0       -9.608171    0.401189   -0.754217
     42          1           0       -9.837186   -1.282631    1.084570
     43          1           0       -8.182232   -0.941845    1.622940
     44          1           0       -9.427220    0.314445    1.737291
     45          6           0       -8.042665    2.370247   -0.450073
     46          6           0       -8.066072    3.105247    0.896797
     47          1           0       -9.039315    2.402088   -0.899716
     48          1           0       -7.379708    2.888986   -1.150791
     49          1           0       -8.343369    4.154746    0.744254
     50          1           0       -8.795725    2.656520    1.578487
     51          1           0       -7.085672    3.079588    1.383267
     52          1           0        2.614609   -3.377132    0.108702
     53          1           0       -3.349816   -2.592022   -0.060314
     54          1           0       -3.201727    1.953652   -0.318301
     55          1           0       -1.121270    1.264579   -0.187446
     56          8           0       -4.341661   -2.475863   -0.079799
     57          1           0        9.548146    3.573274    0.010217
     58          1           0        9.967508    1.137501    0.100257
 ---------------------------------------------------------------------
 Rotational constants (GHZ):      0.3706539      0.0333734      0.0308126
 Leave Link  202 at Mon Apr 27 07:07:29 2015, MaxMem=  1048576000 cpu:         0.1
 (Enter /opt/gaussian/g09/l301.exe)
 Standard basis: 6-311G(d) (5D, 7F)
 Ernie: Thresh=  0.10000D-02 Tol=  0.10000D-05 Strict=F.
 There are   718 symmetry adapted cartesian basis functions of A   symmetry.
 There are   684 symmetry adapted basis functions of A   symmetry.
   684 basis functions,  1208 primitive gaussians,   718 cartesian basis functions
   118 alpha electrons      118 beta electrons
       nuclear repulsion energy      3032.8900264138 Hartrees.
 IExCor=20419 DFT=T Ex+Corr=CAM-B3LYP ExCW=0 ScaHFX=  1.000000
 ScaDFX=  1.000000  1.000000  1.000000  0.810000 ScalE2=  1.000000  1.000000
 IRadAn=      0 IRanWt=     -1 IRanGd=            0 ICorTp=0 IEmpDi=  4
  HFx wShort=  0.000000 wLong=  0.330000 cFull=  0.190000 cShort=  0.000000 cLong=  0.460000
  DFx wShort=  0.000000 wLong=  0.330000 cFull=  0.190000 cShort=  0.000000 cLong=  0.460000
 NAtoms=   58 NActive=   58 NUniq=   58 SFac= 1.00D+00 NAtFMM=   60 NAOKFM=F Big=F
 Integral buffers will be    131072 words long.
 Raffenetti 2 integral format.
 Two-electron integral symmetry is turned on.
 ------------------------------------------------------------------------------
 Polarizable Continuum Model (PCM)
 =================================
 Model                : PCM (using non-symmetric T matrix).
 Atomic radii         : UFF (Universal Force Field).
 Polarization charges : Total charges.
 Charge compensation  : None.
 Solution method      : On-the-fly selection.
 Cavity type          : Scaled VdW (van der Waals Surface) (Alpha=1.100).
 Cavity algorithm     : GePol (No added spheres)
                        Default sphere list used, NSphG=   58.
                        Lebedev-Laikov grids with approx.  5.0 points / Ang**2.
                        Smoothing algorithm: Karplus/York (Gamma=1.0000).
                        Polarization charges: spherical gaussians, with
                                              point-specific exponents (IZeta= 3).
                        Self-potential: point-specific (ISelfS= 7).
                        Self-field    : sphere-specific E.n sum rule (ISelfD= 2).
 1st derivatives      : Analytical E(r).r(x)/FMM algorithm (CHGder, D1EAlg=3).
                        Cavity 1st derivative terms included.
 Solvent              : DiMethylSulfoxide, Eps=  46.826000 Eps(inf)=   2.007889
 ------------------------------------------------------------------------------
 GePol: Number of generator spheres                  =      58
 GePol: Total number of spheres                      =      58
 GePol: Number of exposed spheres                    =      58 (100.00%)
 GePol: Number of points                             =    4257
 GePol: Average weight of points                     =       0.12
 GePol: Minimum weight of points                     =   0.17D-09
 GePol: Maximum weight of points                     =    0.20577
 GePol: Number of points with low weight             =     295
 GePol: Fraction of low-weight points (<1% of avg)   =       6.93%
 GePol: Cavity surface area                          =    529.249 Ang**2
 GePol: Cavity volume                                =    599.309 Ang**3
 Leave Link  301 at Mon Apr 27 07:07:29 2015, MaxMem=  1048576000 cpu:         0.8
 (Enter /opt/gaussian/g09/l302.exe)
 NPDir=0 NMtPBC=     1 NCelOv=     1 NCel=       1 NClECP=     1 NCelD=      1
         NCelK=      1 NCelE2=     1 NClLst=     1 CellRange=     0.0.
 One-electron integrals computed using PRISM.
 NBasis=   684 RedAO= T EigKep=  1.07D-04  NBF=   684
 NBsUse=   684 1.00D-06 EigRej= -1.00D+00 NBFU=   684
 Precomputing XC quadrature grid using
 IXCGrd= 4 IRadAn=           0 IRanWt=          -1 IRanGd=           0 AccXCQ= 0.00D+00.
 Generated NRdTot=       0 NPtTot=           0 NUsed=           0 NTot=          32
 NSgBfM=   641   641   641   641   642 MxSgAt=    58 MxSgA2=    58.
 Leave Link  302 at Mon Apr 27 07:07:30 2015, MaxMem=  1048576000 cpu:        15.0
 (Enter /opt/gaussian/g09/l303.exe)
 DipDrv:  MaxL=1.
 Leave Link  303 at Mon Apr 27 07:07:30 2015, MaxMem=  1048576000 cpu:         1.3
 (Enter /opt/gaussian/g09/l401.exe)
 ExpMin= 1.03D-01 ExpMax= 8.59D+03 ExpMxC= 1.30D+03 IAcc=1 IRadAn=         1 AccDes= 0.00D+00
 Harris functional with IExCor=20419 and IRadAn=       1 diagonalized for initial guess.
 HarFok:  IExCor=20419 AccDes= 0.00D+00 IRadAn=         1 IDoV= 1 UseB2=F ITyADJ=14
 ICtDFT=  3500011 ScaDFX=  1.000000  1.000000  1.000000  1.000000
 FoFCou: FMM=F IPFlag=           0 FMFlag=      100000 FMFlg1=           0
         NFxFlg=           0 DoJE=T BraDBF=F KetDBF=T FulRan=T
         wScrn=  0.000000 ICntrl=     500 IOpCl=  0 I1Cent=   200000004 NGrid=           0
         NMat0=    1 NMatS0=      1 NMatT0=    0 NMatD0=    1 NMtDS0=    0 NMtDT0=    0
 Petite list used in FoFCou.
 Harris En= -1390.18254616304    
 JPrj=0 DoOrth=F DoCkMO=F.
 Leave Link  401 at Mon Apr 27 07:07:32 2015, MaxMem=  1048576000 cpu:        18.7
 (Enter /opt/gaussian/g09/l502.exe)
 Closed shell SCF:
 Using DIIS extrapolation, IDIIS=  1040.
 Integral symmetry usage will be decided dynamically.
 IVT=     1581960 IEndB=     1581960 NGot=  1048576000 MDV=  1047526923
 LenX=  1047526923 LenY=  1047010681
 Requested convergence on RMS density matrix=1.00D-08 within 128 cycles.
 Requested convergence on MAX density matrix=1.00D-06.
 Requested convergence on             energy=1.00D-06.
 No special actions if energy rises.
 Fock matrices will be formed incrementally for  20 cycles.

 Cycle   1  Pass 1  IDiag  1:
 FoFJK:  IHMeth= 1 ICntrl=       0 DoSepK=T KAlg= 0 I1Cent=   0 FoldK=F
 IRaf=         1 NMat=   1 IRICut=       1 DoRegI=T DoRafI=F ISym2E= 0.
 FoFCou: FMM=F IPFlag=           0 FMFlag=      100000 FMFlg1=           0
         NFxFlg=           0 DoJE=T BraDBF=F KetDBF=F FulRan=T
         wScrn=  0.000000 ICntrl=     500 IOpCl=  0 I1Cent=           0 NGrid=           0
         NMat0=    1 NMatS0=      1 NMatT0=    0 NMatD0=    1 NMtDS0=    0 NMtDT0=    0
 Symmetry not used in FoFCou.
 Inv3:  Mode=1 IEnd=    54366147.
 Iteration    1 A*A^-1 deviation from unit magnitude is 7.99D-15 for   1051.
 Iteration    1 A*A^-1 deviation from orthogonality  is 5.31D-15 for   4206    121.
 Iteration    1 A^-1*A deviation from unit magnitude is 7.77D-15 for    517.
 Iteration    1 A^-1*A deviation from orthogonality  is 1.05D-09 for   3238   2859.
 Iteration    2 A*A^-1 deviation from unit magnitude is 1.33D-14 for    259.
 Iteration    2 A*A^-1 deviation from orthogonality  is 9.67D-15 for   2146   1845.
 Iteration    2 A^-1*A deviation from unit magnitude is 1.55D-15 for    246.
 Iteration    2 A^-1*A deviation from orthogonality  is 6.81D-16 for   4225   2731.
 E= -1446.12816213784    
 DIIS: error= 5.28D-02 at cycle   1 NSaved=   1.
 NSaved= 1 IEnMin= 1 EnMin= -1446.12816213784     IErMin= 1 ErrMin= 5.28D-02
 ErrMax= 5.28D-02  0.00D+00 EMaxC= 1.00D-01 BMatC= 2.59D+00 BMatP= 2.59D+00
 IDIUse=3 WtCom= 4.72D-01 WtEn= 5.28D-01
 Coeff-Com:  0.100D+01
 Coeff-En:   0.100D+01
 Coeff:      0.100D+01
 Gap=     0.267 Goal=   None    Shift=    0.000
 GapD=    0.267 DampG=1.000 DampE=0.500 DampFc=0.5000 IDamp=-1.
 Damping current iteration by 5.00D-01
 RMSDP=2.47D-03 MaxDP=1.66D-01              OVMax= 2.13D-01

 Cycle   2  Pass 1  IDiag  1:
 RMSU=  1.16D-03    CP:  9.51D-01
 E= -1446.34260992156     Delta-E=       -0.214447783721 Rises=F Damp=T
 DIIS: error= 2.49D-02 at cycle   2 NSaved=   2.
 NSaved= 2 IEnMin= 2 EnMin= -1446.34260992156     IErMin= 2 ErrMin= 2.49D-02
 ErrMax= 2.49D-02  0.00D+00 EMaxC= 1.00D-01 BMatC= 5.29D-01 BMatP= 2.59D+00
 IDIUse=3 WtCom= 7.51D-01 WtEn= 2.49D-01
 Coeff-Com: -0.415D+00 0.142D+01
 Coeff-En:   0.913D-01 0.909D+00
 Coeff:     -0.289D+00 0.129D+01
 Gap=     0.276 Goal=   None    Shift=    0.000
 RMSDP=7.88D-04 MaxDP=8.69D-02 DE=-2.14D-01 OVMax= 3.03D-01

 Cycle   3  Pass 1  IDiag  1:
 RMSU=  7.44D-04    CP:  9.56D-01  7.78D-01
 E= -1446.44243435970     Delta-E=       -0.099824438138 Rises=F Damp=F
 DIIS: error= 2.23D-02 at cycle   3 NSaved=   3.
 NSaved= 3 IEnMin= 3 EnMin= -1446.44243435970     IErMin= 3 ErrMin= 2.23D-02
 ErrMax= 2.23D-02  0.00D+00 EMaxC= 1.00D-01 BMatC= 2.40D-01 BMatP= 5.29D-01
 IDIUse=3 WtCom= 7.77D-01 WtEn= 2.23D-01
 Coeff-Com: -0.333D+00 0.733D+00 0.600D+00
 Coeff-En:   0.000D+00 0.249D+00 0.751D+00
 Coeff:     -0.259D+00 0.625D+00 0.633D+00
 Gap=     0.223 Goal=   None    Shift=    0.000
 RMSDP=8.69D-04 MaxDP=7.99D-02 DE=-9.98D-02 OVMax= 1.15D-01

 Cycle   4  Pass 1  IDiag  1:
 RMSU=  2.59D-04    CP:  9.28D-01  1.40D+00  5.49D-01
 E= -1446.62970128076     Delta-E=       -0.187266921062 Rises=F Damp=F
 DIIS: error= 9.07D-03 at cycle   4 NSaved=   4.
 NSaved= 4 IEnMin= 4 EnMin= -1446.62970128076     IErMin= 4 ErrMin= 9.07D-03
 ErrMax= 9.07D-03  0.00D+00 EMaxC= 1.00D-01 BMatC= 2.51D-02 BMatP= 2.40D-01
 IDIUse=3 WtCom= 9.09D-01 WtEn= 9.07D-02
 Coeff-Com: -0.140D+00 0.306D+00 0.372D+00 0.462D+00
 Coeff-En:   0.000D+00 0.000D+00 0.428D-01 0.957D+00
 Coeff:     -0.127D+00 0.278D+00 0.342D+00 0.507D+00
 Gap=     0.202 Goal=   None    Shift=    0.000
 RMSDP=1.83D-04 MaxDP=2.37D-02 DE=-1.87D-01 OVMax= 3.85D-02

 Cycle   5  Pass 1  IDiag  1:
 RMSU=  8.95D-05    CP:  9.30D-01  1.32D+00  6.93D-01  6.94D-01
 E= -1446.65029339341     Delta-E=       -0.020592112651 Rises=F Damp=F
 DIIS: error= 1.54D-03 at cycle   5 NSaved=   5.
 NSaved= 5 IEnMin= 5 EnMin= -1446.65029339341     IErMin= 5 ErrMin= 1.54D-03
 ErrMax= 1.54D-03  0.00D+00 EMaxC= 1.00D-01 BMatC= 6.57D-04 BMatP= 2.51D-02
 IDIUse=3 WtCom= 9.85D-01 WtEn= 1.54D-02
 Coeff-Com:  0.152D-01-0.331D-01-0.756D-02 0.163D+00 0.863D+00
 Coeff-En:   0.000D+00 0.000D+00 0.000D+00 0.000D+00 0.100D+01
 Coeff:      0.150D-01-0.326D-01-0.744D-02 0.160D+00 0.865D+00
 Gap=     0.203 Goal=   None    Shift=    0.000
 RMSDP=4.63D-05 MaxDP=3.10D-03 DE=-2.06D-02 OVMax= 6.06D-03

 Cycle   6  Pass 1  IDiag  1:
 RMSU=  2.61D-05    CP:  9.28D-01  1.34D+00  6.87D-01  8.03D-01  9.96D-01
 E= -1446.65093013968     Delta-E=       -0.000636746267 Rises=F Damp=F
 DIIS: error= 3.80D-04 at cycle   6 NSaved=   6.
 NSaved= 6 IEnMin= 6 EnMin= -1446.65093013968     IErMin= 6 ErrMin= 3.80D-04
 ErrMax= 3.80D-04  0.00D+00 EMaxC= 1.00D-01 BMatC= 7.33D-05 BMatP= 6.57D-04
 IDIUse=3 WtCom= 9.96D-01 WtEn= 3.80D-03
 Coeff-Com:  0.169D-01-0.369D-01-0.297D-01 0.428D-01 0.425D+00 0.582D+00
 Coeff-En:   0.000D+00 0.000D+00 0.000D+00 0.000D+00 0.000D+00 0.100D+01
 Coeff:      0.169D-01-0.368D-01-0.296D-01 0.426D-01 0.423D+00 0.583D+00
 Gap=     0.204 Goal=   None    Shift=    0.000
 RMSDP=1.19D-05 MaxDP=8.02D-04 DE=-6.37D-04 OVMax= 2.38D-03

 Cycle   7  Pass 1  IDiag  1:
 RMSU=  9.65D-06    CP:  9.28D-01  1.34D+00  6.89D-01  8.09D-01  1.05D+00
                    CP:  8.60D-01
 E= -1446.65100558573     Delta-E=       -0.000075446055 Rises=F Damp=F
 DIIS: error= 8.15D-05 at cycle   7 NSaved=   7.
 NSaved= 7 IEnMin= 7 EnMin= -1446.65100558573     IErMin= 7 ErrMin= 8.15D-05
 ErrMax= 8.15D-05  0.00D+00 EMaxC= 1.00D-01 BMatC= 3.45D-06 BMatP= 7.33D-05
 IDIUse=1 WtCom= 1.00D+00 WtEn= 0.00D+00
 Coeff-Com:  0.224D-02-0.483D-02-0.537D-02-0.645D-02-0.106D-02 0.148D+00
 Coeff-Com:  0.868D+00
 Coeff:      0.224D-02-0.483D-02-0.537D-02-0.645D-02-0.106D-02 0.148D+00
 Coeff:      0.868D+00
 Gap=     0.205 Goal=   None    Shift=    0.000
 RMSDP=5.00D-06 MaxDP=3.09D-04 DE=-7.54D-05 OVMax= 1.07D-03

 Cycle   8  Pass 1  IDiag  1:
 RMSU=  3.03D-06    CP:  9.28D-01  1.35D+00  6.90D-01  8.14D-01  1.07D+00
                    CP:  9.70D-01  1.02D+00
 E= -1446.65101154943     Delta-E=       -0.000005963693 Rises=F Damp=F
 DIIS: error= 3.24D-05 at cycle   8 NSaved=   8.
 NSaved= 8 IEnMin= 8 EnMin= -1446.65101154943     IErMin= 8 ErrMin= 3.24D-05
 ErrMax= 3.24D-05  0.00D+00 EMaxC= 1.00D-01 BMatC= 8.95D-07 BMatP= 3.45D-06
 IDIUse=1 WtCom= 1.00D+00 WtEn= 0.00D+00
 Coeff-Com: -0.117D-02 0.259D-02 0.151D-02-0.860D-02-0.578D-01-0.290D-02
 Coeff-Com:  0.409D+00 0.657D+00
 Coeff:     -0.117D-02 0.259D-02 0.151D-02-0.860D-02-0.578D-01-0.290D-02
 Coeff:      0.409D+00 0.657D+00
 Gap=     0.205 Goal=   None    Shift=    0.000
 RMSDP=1.95D-06 MaxDP=1.08D-04 DE=-5.96D-06 OVMax= 5.45D-04

 Cycle   9  Pass 1  IDiag  1:
 RMSU=  1.41D-06    CP:  9.28D-01  1.35D+00  6.90D-01  8.15D-01  1.08D+00
                    CP:  9.93D-01  1.12D+00  9.37D-01
 E= -1446.65101287308     Delta-E=       -0.000001323651 Rises=F Damp=F
 DIIS: error= 1.50D-05 at cycle   9 NSaved=   9.
 NSaved= 9 IEnMin= 9 EnMin= -1446.65101287308     IErMin= 9 ErrMin= 1.50D-05
 ErrMax= 1.50D-05  0.00D+00 EMaxC= 1.00D-01 BMatC= 1.00D-07 BMatP= 8.95D-07
 IDIUse=1 WtCom= 1.00D+00 WtEn= 0.00D+00
 Coeff-Com: -0.723D-03 0.157D-02 0.134D-02-0.237D-02-0.215D-01-0.223D-01
 Coeff-Com:  0.108D-01 0.248D+00 0.785D+00
 Coeff:     -0.723D-03 0.157D-02 0.134D-02-0.237D-02-0.215D-01-0.223D-01
 Coeff:      0.108D-01 0.248D+00 0.785D+00
 Gap=     0.205 Goal=   None    Shift=    0.000
 RMSDP=9.39D-07 MaxDP=3.35D-05 DE=-1.32D-06 OVMax= 2.41D-04

 Cycle  10  Pass 1  IDiag  1:
 RMSU=  5.46D-07    CP:  9.28D-01  1.35D+00  6.90D-01  8.16D-01  1.08D+00
                    CP:  1.01D+00  1.14D+00  1.12D+00  9.62D-01
 E= -1446.65101306207     Delta-E=       -0.000000188991 Rises=F Damp=F
 DIIS: error= 5.81D-06 at cycle  10 NSaved=  10.
 NSaved=10 IEnMin=10 EnMin= -1446.65101306207     IErMin=10 ErrMin= 5.81D-06
 ErrMax= 5.81D-06  0.00D+00 EMaxC= 1.00D-01 BMatC= 1.34D-08 BMatP= 1.00D-07
 IDIUse=1 WtCom= 1.00D+00 WtEn= 0.00D+00
 Coeff-Com: -0.156D-03 0.335D-03 0.392D-03-0.585D-05-0.232D-02-0.847D-02
 Coeff-Com: -0.445D-01 0.305D-01 0.301D+00 0.724D+00
 Coeff:     -0.156D-03 0.335D-03 0.392D-03-0.585D-05-0.232D-02-0.847D-02
 Coeff:     -0.445D-01 0.305D-01 0.301D+00 0.724D+00
 Gap=     0.205 Goal=   None    Shift=    0.000
 RMSDP=3.61D-07 MaxDP=1.50D-05 DE=-1.89D-07 OVMax= 1.24D-04

 Cycle  11  Pass 1  IDiag  1:
 RMSU=  2.25D-07    CP:  9.28D-01  1.35D+00  6.90D-01  8.16D-01  1.08D+00
                    CP:  1.01D+00  1.15D+00  1.15D+00  1.12D+00  9.24D-01
 E= -1446.65101309056     Delta-E=       -0.000000028487 Rises=F Damp=F
 DIIS: error= 4.49D-06 at cycle  11 NSaved=  11.
 NSaved=11 IEnMin=11 EnMin= -1446.65101309056     IErMin=11 ErrMin= 4.49D-06
 ErrMax= 4.49D-06  0.00D+00 EMaxC= 1.00D-01 BMatC= 3.52D-09 BMatP= 1.34D-08
 IDIUse=1 WtCom= 1.00D+00 WtEn= 0.00D+00
 Coeff-Com:  0.737D-04-0.162D-03-0.799D-04 0.445D-03 0.304D-02 0.904D-03
 Coeff-Com: -0.203D-01-0.316D-01-0.390D-01 0.335D+00 0.752D+00
 Coeff:      0.737D-04-0.162D-03-0.799D-04 0.445D-03 0.304D-02 0.904D-03
 Coeff:     -0.203D-01-0.316D-01-0.390D-01 0.335D+00 0.752D+00
 Gap=     0.205 Goal=   None    Shift=    0.000
 RMSDP=1.91D-07 MaxDP=7.53D-06 DE=-2.85D-08 OVMax= 6.36D-05

 Cycle  12  Pass 1  IDiag  1:
 RMSU=  1.05D-07    CP:  9.28D-01  1.35D+00  6.90D-01  8.16D-01  1.08D+00
                    CP:  1.01D+00  1.15D+00  1.18D+00  1.13D+00  1.14D+00
                    CP:  9.37D-01
 E= -1446.65101309816     Delta-E=       -0.000000007608 Rises=F Damp=F
 DIIS: error= 1.17D-06 at cycle  12 NSaved=  12.
 NSaved=12 IEnMin=12 EnMin= -1446.65101309816     IErMin=12 ErrMin= 1.17D-06
 ErrMax= 1.17D-06  0.00D+00 EMaxC= 1.00D-01 BMatC= 6.45D-10 BMatP= 3.52D-09
 IDIUse=1 WtCom= 1.00D+00 WtEn= 0.00D+00
 Coeff-Com:  0.612D-04-0.133D-03-0.957D-04 0.223D-03 0.191D-02 0.176D-02
 Coeff-Com: -0.288D-02-0.201D-01-0.717D-01 0.426D-01 0.339D+00 0.709D+00
 Coeff:      0.612D-04-0.133D-03-0.957D-04 0.223D-03 0.191D-02 0.176D-02
 Coeff:     -0.288D-02-0.201D-01-0.717D-01 0.426D-01 0.339D+00 0.709D+00
 Gap=     0.205 Goal=   None    Shift=    0.000
 RMSDP=8.09D-08 MaxDP=3.19D-06 DE=-7.61D-09 OVMax= 2.49D-05

 Cycle  13  Pass 1  IDiag  1:
 RMSU=  4.19D-08    CP:  9.28D-01  1.35D+00  6.90D-01  8.16D-01  1.08D+00
                    CP:  1.01D+00  1.15D+00  1.18D+00  1.16D+00  1.18D+00
                    CP:  1.16D+00  1.02D+00
 E= -1446.65101309945     Delta-E=       -0.000000001283 Rises=F Damp=F
 DIIS: error= 6.13D-07 at cycle  13 NSaved=  13.
 NSaved=13 IEnMin=13 EnMin= -1446.65101309945     IErMin=13 ErrMin= 6.13D-07
 ErrMax= 6.13D-07  0.00D+00 EMaxC= 1.00D-01 BMatC= 1.02D-10 BMatP= 6.45D-10
 IDIUse=1 WtCom= 1.00D+00 WtEn= 0.00D+00
 Coeff-Com:  0.479D-05-0.978D-05-0.142D-04-0.437D-04-0.831D-04 0.408D-03
 Coeff-Com:  0.460D-02 0.167D-02-0.168D-01-0.727D-01-0.818D-01 0.264D+00
 Coeff-Com:  0.901D+00
 Coeff:      0.479D-05-0.978D-05-0.142D-04-0.437D-04-0.831D-04 0.408D-03
 Coeff:      0.460D-02 0.167D-02-0.168D-01-0.727D-01-0.818D-01 0.264D+00
 Coeff:      0.901D+00
 Gap=     0.205 Goal=   None    Shift=    0.000
 RMSDP=4.11D-08 MaxDP=2.11D-06 DE=-1.28D-09 OVMax= 1.74D-05

 Cycle  14  Pass 1  IDiag  1:
 RMSU=  1.54D-08    CP:  9.28D-01  1.35D+00  6.90D-01  8.16D-01  1.08D+00
                    CP:  1.01D+00  1.15D+00  1.19D+00  1.16D+00  1.22D+00
                    CP:  1.23D+00  1.24D+00  1.02D+00
 E= -1446.65101309985     Delta-E=       -0.000000000398 Rises=F Damp=F
 DIIS: error= 1.34D-07 at cycle  14 NSaved=  14.
 NSaved=14 IEnMin=14 EnMin= -1446.65101309985     IErMin=14 ErrMin= 1.34D-07
 ErrMax= 1.34D-07  0.00D+00 EMaxC= 1.00D-01 BMatC= 1.20D-11 BMatP= 1.02D-10
 IDIUse=1 WtCom= 1.00D+00 WtEn= 0.00D+00
 Coeff-Com: -0.296D-05 0.663D-05 0.298D-05-0.375D-04-0.186D-03-0.264D-04
 Coeff-Com:  0.174D-02 0.233D-02 0.105D-02-0.264D-01-0.578D-01 0.191D-01
 Coeff-Com:  0.308D+00 0.753D+00
 Coeff:     -0.296D-05 0.663D-05 0.298D-05-0.375D-04-0.186D-03-0.264D-04
 Coeff:      0.174D-02 0.233D-02 0.105D-02-0.264D-01-0.578D-01 0.191D-01
 Coeff:      0.308D+00 0.753D+00
 Gap=     0.205 Goal=   None    Shift=    0.000
 RMSDP=9.30D-09 MaxDP=4.56D-07 DE=-3.98D-10 OVMax= 2.91D-06

 Error on total polarization charges =  0.01999
 SCF Done:  E(RCAM-B3LYP) =  -1446.65101310     A.U. after   14 cycles
            NFock= 14  Conv=0.93D-08     -V/T= 2.0037
 KE= 1.441378898495D+03 PE=-9.432546251905D+03 EE= 3.511626313896D+03
 Leave Link  502 at Mon Apr 27 07:10:09 2015, MaxMem=  1048576000 cpu:      2454.7
 (Enter /opt/gaussian/g09/l601.exe)
 Copying SCF densities to generalized density rwf, IOpCl= 0 IROHF=0.

 **********************************************************************

            Population analysis using the SCF density.

 **********************************************************************

 Orbital symmetries:
       Occupied  (A) (A) (A) (A) (A) (A) (A) (A) (A) (A) (A) (A)
                 (A) (A) (A) (A) (A) (A) (A) (A) (A) (A) (A) (A)
                 (A) (A) (A) (A) (A) (A) (A) (A) (A) (A) (A) (A)
                 (A) (A) (A) (A) (A) (A) (A) (A) (A) (A) (A) (A)
                 (A) (A) (A) (A) (A) (A) (A) (A) (A) (A) (A) (A)
                 (A) (A) (A) (A) (A) (A) (A) (A) (A) (A) (A) (A)
                 (A) (A) (A) (A) (A) (A) (A) (A) (A) (A) (A) (A)
                 (A) (A) (A) (A) (A) (A) (A) (A) (A) (A) (A) (A)
                 (A) (A) (A) (A) (A) (A) (A) (A) (A) (A) (A) (A)
                 (A) (A) (A) (A) (A) (A) (A) (A) (A) (A)
       Virtual   (A) (A) (A) (A) (A) (A) (A) (A) (A) (A) (A) (A)
                 (A) (A) (A) (A) (A) (A) (A) (A) (A) (A) (A) (A)
                 (A) (A) (A) (A) (A) (A) (A) (A) (A) (A) (A) (A)
                 (A) (A) (A) (A) (A) (A) (A) (A) (A) (A) (A) (A)
                 (A) (A) (A) (A) (A) (A) (A) (A) (A) (A) (A) (A)
                 (A) (A) (A) (A) (A) (A) (A) (A) (A) (A) (A) (A)
                 (A) (A) (A) (A) (A) (A) (A) (A) (A) (A) (A) (A)
                 (A) (A) (A) (A) (A) (A) (A) (A) (A) (A) (A) (A)
                 (A) (A) (A) (A) (A) (A) (A) (A) (A) (A) (A) (A)
                 (A) (A) (A) (A) (A) (A) (A) (A) (A) (A) (A) (A)
                 (A) (A) (A) (A) (A) (A) (A) (A) (A) (A) (A) (A)
                 (A) (A) (A) (A) (A) (A) (A) (A) (A) (A) (A) (A)
                 (A) (A) (A) (A) (A) (A) (A) (A) (A) (A) (A) (A)
                 (A) (A) (A) (A) (A) (A) (A) (A) (A) (A) (A) (A)
                 (A) (A) (A) (A) (A) (A) (A) (A) (A) (A) (A) (A)
                 (A) (A) (A) (A) (A) (A) (A) (A) (A) (A) (A) (A)
                 (A) (A) (A) (A) (A) (A) (A) (A) (A) (A) (A) (A)
                 (A) (A) (A) (A) (A) (A) (A) (A) (A) (A) (A) (A)
                 (A) (A) (A) (A) (A) (A) (A) (A) (A) (A) (A) (A)
                 (A) (A) (A) (A) (A) (A) (A) (A) (A) (A) (A) (A)
                 (A) (A) (A) (A) (A) (A) (A) (A) (A) (A) (A) (A)
                 (A) (A) (A) (A) (A) (A) (A) (A) (A) (A) (A) (A)
                 (A) (A) (A) (A) (A) (A) (A) (A) (A) (A) (A) (A)
                 (A) (A) (A) (A) (A) (A) (A) (A) (A) (A) (A) (A)
                 (A) (A) (A) (A) (A) (A) (A) (A) (A) (A) (A) (A)
                 (A) (A) (A) (A) (A) (A) (A) (A) (A) (A) (A) (A)
                 (A) (A) (A) (A) (A) (A) (A) (A) (A) (A) (A) (A)
                 (A) (A) (A) (A) (A) (A) (A) (A) (A) (A) (A) (A)
                 (A) (A) (A) (A) (A) (A) (A) (A) (A) (A) (A) (A)
                 (A) (A) (A) (A) (A) (A) (A) (A) (A) (A) (A) (A)
                 (A) (A) (A) (A) (A) (A) (A) (A) (A) (A) (A) (A)
                 (A) (A) (A) (A) (A) (A) (A) (A) (A) (A) (A) (A)
                 (A) (A) (A) (A) (A) (A) (A) (A) (A) (A) (A) (A)
                 (A) (A) (A) (A) (A) (A) (A) (A) (A) (A) (A) (A)
                 (A) (A) (A) (A) (A) (A) (A) (A) (A) (A) (A) (A)
                 (A) (A) (A) (A) (A) (A) (A) (A) (A) (A) (A) (A)
                 (A) (A) (A) (A) (A) (A) (A) (A) (A) (A) (A) (A)
                 (A) (A) (A) (A) (A) (A) (A) (A) (A) (A) (A) (A)
                 (A) (A) (A) (A) (A) (A) (A) (A) (A) (A) (A) (A)
                 (A) (A) (A) (A) (A) (A) (A) (A) (A) (A) (A) (A)
                 (A) (A) (A) (A) (A) (A) (A) (A) (A) (A) (A) (A)
                 (A) (A) (A) (A) (A) (A) (A) (A) (A) (A) (A) (A)
                 (A) (A) (A) (A) (A) (A) (A) (A) (A) (A) (A) (A)
                 (A) (A) (A) (A) (A) (A) (A) (A) (A) (A) (A) (A)
                 (A) (A) (A) (A) (A) (A) (A) (A) (A) (A) (A) (A)
                 (A) (A) (A) (A) (A) (A) (A) (A) (A) (A) (A) (A)
                 (A) (A) (A) (A) (A) (A) (A) (A) (A) (A) (A) (A)
                 (A) (A)
 The electronic state is 1-A.
 Alpha  occ. eigenvalues --  -19.20678 -14.52503 -14.44842 -14.43334 -14.43244
 Alpha  occ. eigenvalues --  -14.40807 -14.38709 -10.34111 -10.32219 -10.31198
 Alpha  occ. eigenvalues --  -10.30552 -10.30161 -10.29154 -10.29076 -10.28717
 Alpha  occ. eigenvalues --  -10.27827 -10.27788 -10.27486 -10.27238 -10.26868
 Alpha  occ. eigenvalues --  -10.26517 -10.26442 -10.26429 -10.26195 -10.26043
 Alpha  occ. eigenvalues --  -10.25913 -10.25900 -10.25855 -10.25776 -10.25671
 Alpha  occ. eigenvalues --  -10.24270 -10.23774 -10.23331 -10.23295  -1.20798
 Alpha  occ. eigenvalues --   -1.13990  -1.11669  -1.03923  -0.99359  -0.99041
 Alpha  occ. eigenvalues --   -0.97730  -0.96281  -0.94113  -0.92608  -0.89629
 Alpha  occ. eigenvalues --   -0.86752  -0.85762  -0.85217  -0.84414  -0.83193
 Alpha  occ. eigenvalues --   -0.82619  -0.82014  -0.79727  -0.75954  -0.73817
 Alpha  occ. eigenvalues --   -0.73011  -0.71977  -0.71385  -0.70335  -0.69668
 Alpha  occ. eigenvalues --   -0.69121  -0.67670  -0.66923  -0.65509  -0.64179
 Alpha  occ. eigenvalues --   -0.62704  -0.61855  -0.60725  -0.59381  -0.57907
 Alpha  occ. eigenvalues --   -0.57822  -0.56852  -0.56477  -0.56124  -0.54574
 Alpha  occ. eigenvalues --   -0.54167  -0.53999  -0.52960  -0.52671  -0.52418
 Alpha  occ. eigenvalues --   -0.51903  -0.51569  -0.51052  -0.50460  -0.49921
 Alpha  occ. eigenvalues --   -0.49444  -0.48853  -0.48565  -0.47983  -0.47621
 Alpha  occ. eigenvalues --   -0.47070  -0.46419  -0.46269  -0.45139  -0.45015
 Alpha  occ. eigenvalues --   -0.44200  -0.43929  -0.43739  -0.43304  -0.42744
 Alpha  occ. eigenvalues --   -0.41816  -0.41502  -0.41387  -0.40794  -0.39912
 Alpha  occ. eigenvalues --   -0.39189  -0.39169  -0.38457  -0.38092  -0.36366
 Alpha  occ. eigenvalues --   -0.36195  -0.34772  -0.31351  -0.30361  -0.29291
 Alpha  occ. eigenvalues --   -0.28768  -0.27505  -0.24119
 Alpha virt. eigenvalues --   -0.03660  -0.00600   0.00412   0.03436   0.03837
 Alpha virt. eigenvalues --    0.04814   0.07041   0.07980   0.08626   0.09029
 Alpha virt. eigenvalues --    0.09341   0.10283   0.10680   0.10986   0.11055
 Alpha virt. eigenvalues --    0.11540   0.12123   0.12184   0.13338   0.14231
 Alpha virt. eigenvalues --    0.14544   0.15202   0.15294   0.15484   0.15962
 Alpha virt. eigenvalues --    0.16360   0.16974   0.17239   0.18266   0.18905
 Alpha virt. eigenvalues --    0.19133   0.19719   0.20659   0.21400   0.22062
 Alpha virt. eigenvalues --    0.22275   0.23055   0.23558   0.24163   0.24460
 Alpha virt. eigenvalues --    0.24568   0.24875   0.25006   0.25561   0.26184
 Alpha virt. eigenvalues --    0.27168   0.27911   0.29137   0.29332   0.29889
 Alpha virt. eigenvalues --    0.30307   0.30760   0.31041   0.31818   0.32230
 Alpha virt. eigenvalues --    0.32655   0.33148   0.33676   0.34496   0.34950
 Alpha virt. eigenvalues --    0.35281   0.36061   0.36162   0.36331   0.37637
 Alpha virt. eigenvalues --    0.38141   0.38223   0.38746   0.39337   0.39625
 Alpha virt. eigenvalues --    0.40167   0.41255   0.41534   0.41882   0.41959
 Alpha virt. eigenvalues --    0.42672   0.42782   0.43096   0.43317   0.43611
 Alpha virt. eigenvalues --    0.44062   0.44265   0.44447   0.44735   0.45113
 Alpha virt. eigenvalues --    0.45449   0.46037   0.46474   0.46821   0.47060
 Alpha virt. eigenvalues --    0.47545   0.47929   0.48201   0.48562   0.48728
 Alpha virt. eigenvalues --    0.49003   0.49088   0.49350   0.49893   0.50128
 Alpha virt. eigenvalues --    0.50742   0.51087   0.51239   0.51677   0.51866
 Alpha virt. eigenvalues --    0.52250   0.53024   0.53377   0.53658   0.54693
 Alpha virt. eigenvalues --    0.55564   0.56223   0.56503   0.56672   0.57247
 Alpha virt. eigenvalues --    0.57345   0.57945   0.58239   0.58536   0.58735
 Alpha virt. eigenvalues --    0.59241   0.59663   0.59772   0.60629   0.61107
 Alpha virt. eigenvalues --    0.61354   0.62028   0.62235   0.62779   0.63084
 Alpha virt. eigenvalues --    0.63584   0.64102   0.64948   0.65294   0.65424
 Alpha virt. eigenvalues --    0.65982   0.66310   0.66548   0.66688   0.67353
 Alpha virt. eigenvalues --    0.67446   0.67518   0.67996   0.68192   0.68719
 Alpha virt. eigenvalues --    0.69209   0.69425   0.69877   0.69973   0.70771
 Alpha virt. eigenvalues --    0.71181   0.71817   0.72223   0.72366   0.72932
 Alpha virt. eigenvalues --    0.73607   0.73831   0.74416   0.74805   0.75394
 Alpha virt. eigenvalues --    0.76766   0.76772   0.77222   0.78285   0.78790
 Alpha virt. eigenvalues --    0.79192   0.79357   0.80033   0.80622   0.80999
 Alpha virt. eigenvalues --    0.81654   0.82161   0.83019   0.83091   0.83438
 Alpha virt. eigenvalues --    0.83614   0.84367   0.84681   0.85172   0.86014
 Alpha virt. eigenvalues --    0.86707   0.87217   0.87455   0.88030   0.88896
 Alpha virt. eigenvalues --    0.89961   0.90243   0.90310   0.91932   0.92512
 Alpha virt. eigenvalues --    0.92831   0.93910   0.94542   0.94945   0.95523
 Alpha virt. eigenvalues --    0.96706   0.98420   0.98985   0.99654   1.00965
 Alpha virt. eigenvalues --    1.01515   1.02893   1.02961   1.03146   1.03599
 Alpha virt. eigenvalues --    1.04719   1.05183   1.05297   1.06184   1.06570
 Alpha virt. eigenvalues --    1.08332   1.08605   1.09785   1.10726   1.11771
 Alpha virt. eigenvalues --    1.12363   1.12885   1.14004   1.14643   1.15857
 Alpha virt. eigenvalues --    1.16244   1.16692   1.17320   1.18444   1.18526
 Alpha virt. eigenvalues --    1.18878   1.19264   1.20659   1.21182   1.22030
 Alpha virt. eigenvalues --    1.23497   1.23709   1.25169   1.25489   1.25756
 Alpha virt. eigenvalues --    1.26385   1.26825   1.27064   1.27453   1.27796
 Alpha virt. eigenvalues --    1.28288   1.29186   1.29702   1.30244   1.30633
 Alpha virt. eigenvalues --    1.30850   1.32303   1.33060   1.34100   1.34446
 Alpha virt. eigenvalues --    1.36412   1.37309   1.38994   1.39285   1.39963
 Alpha virt. eigenvalues --    1.42667   1.43893   1.44748   1.46411   1.46760
 Alpha virt. eigenvalues --    1.48094   1.48756   1.49495   1.49555   1.51155
 Alpha virt. eigenvalues --    1.52341   1.53282   1.54935   1.55939   1.56553
 Alpha virt. eigenvalues --    1.56783   1.57361   1.57902   1.58045   1.58305
 Alpha virt. eigenvalues --    1.58453   1.59494   1.59658   1.60739   1.61496
 Alpha virt. eigenvalues --    1.62496   1.63784   1.65958   1.66425   1.66663
 Alpha virt. eigenvalues --    1.66746   1.67421   1.69348   1.70083   1.70578
 Alpha virt. eigenvalues --    1.70866   1.70968   1.72679   1.72777   1.73857
 Alpha virt. eigenvalues --    1.75141   1.75440   1.75632   1.76713   1.77554
 Alpha virt. eigenvalues --    1.79518   1.80029   1.81209   1.81575   1.81851
 Alpha virt. eigenvalues --    1.82222   1.82502   1.83435   1.84447   1.84838
 Alpha virt. eigenvalues --    1.85645   1.86445   1.86762   1.87290   1.87951
 Alpha virt. eigenvalues --    1.88327   1.88569   1.89352   1.90289   1.91488
 Alpha virt. eigenvalues --    1.91678   1.92833   1.94063   1.94573   1.95256
 Alpha virt. eigenvalues --    1.95721   1.95919   1.96680   1.97255   1.97993
 Alpha virt. eigenvalues --    1.98986   2.00472   2.00564   2.01185   2.01777
 Alpha virt. eigenvalues --    2.03105   2.04083   2.04661   2.05297   2.06313
 Alpha virt. eigenvalues --    2.07684   2.10257   2.11764   2.12730   2.12915
 Alpha virt. eigenvalues --    2.14204   2.14786   2.17764   2.19828   2.21438
 Alpha virt. eigenvalues --    2.23552   2.24748   2.25967   2.26905   2.27948
 Alpha virt. eigenvalues --    2.28168   2.29901   2.30373   2.30635   2.33171
 Alpha virt. eigenvalues --    2.33815   2.34716   2.35859   2.36268   2.36824
 Alpha virt. eigenvalues --    2.38071   2.38890   2.39609   2.39814   2.41490
 Alpha virt. eigenvalues --    2.42224   2.43131   2.43579   2.44146   2.44306
 Alpha virt. eigenvalues --    2.44726   2.45073   2.46471   2.47240   2.48249
 Alpha virt. eigenvalues --    2.49378   2.49522   2.50481   2.52158   2.52466
 Alpha virt. eigenvalues --    2.53616   2.53871   2.54196   2.54541   2.55043
 Alpha virt. eigenvalues --    2.56608   2.57387   2.59015   2.59747   2.60628
 Alpha virt. eigenvalues --    2.62257   2.62363   2.63720   2.64618   2.65181
 Alpha virt. eigenvalues --    2.67347   2.68263   2.68856   2.70017   2.71463
 Alpha virt. eigenvalues --    2.74142   2.74259   2.74797   2.74988   2.75614
 Alpha virt. eigenvalues --    2.77441   2.78318   2.78964   2.79657   2.80096
 Alpha virt. eigenvalues --    2.80571   2.81246   2.81490   2.82269   2.83188
 Alpha virt. eigenvalues --    2.83793   2.84724   2.86928   2.90231   2.90429
 Alpha virt. eigenvalues --    2.91212   2.91638   2.92688   2.92818   2.93058
 Alpha virt. eigenvalues --    2.93581   2.94196   2.94888   2.97521   2.97969
 Alpha virt. eigenvalues --    3.01467   3.01629   3.06445   3.07675   3.08145
 Alpha virt. eigenvalues --    3.09292   3.09672   3.11333   3.11676   3.13443
 Alpha virt. eigenvalues --    3.17168   3.17562   3.17985   3.19357   3.20571
 Alpha virt. eigenvalues --    3.22018   3.22414   3.23364   3.24453   3.25546
 Alpha virt. eigenvalues --    3.26040   3.27090   3.28625   3.29500   3.31093
 Alpha virt. eigenvalues --    3.32869   3.34212   3.34741   3.34844   3.35480
 Alpha virt. eigenvalues --    3.36005   3.36908   3.37240   3.37500   3.38234
 Alpha virt. eigenvalues --    3.38770   3.38988   3.40848   3.42203   3.42542
 Alpha virt. eigenvalues --    3.43222   3.45065   3.47989   3.48770   3.51314
 Alpha virt. eigenvalues --    3.53123   3.53852   3.54124   3.55923   3.58677
 Alpha virt. eigenvalues --    3.59658   3.59832   3.63917   3.64790   3.67629
 Alpha virt. eigenvalues --    3.70272   3.72473   3.75563   3.78672   3.79766
 Alpha virt. eigenvalues --    3.84120   3.84290   3.86403   3.89452   3.89927
 Alpha virt. eigenvalues --    3.90397   3.90735   3.93019   3.97055   3.98094
 Alpha virt. eigenvalues --    4.01234   4.04459   4.05539   4.07700   4.11277
 Alpha virt. eigenvalues --    4.15086   4.15807   4.27048   4.30666   4.34661
 Alpha virt. eigenvalues --    4.59395   4.59820   4.61888   4.75365   4.82248
 Alpha virt. eigenvalues --    4.83185   4.84768   4.85188   4.86215   4.90197
 Alpha virt. eigenvalues --    4.96765   5.09177   5.15763   5.29211   5.35406
 Alpha virt. eigenvalues --    5.65675   5.66688  23.29248  23.38055  23.42769
 Alpha virt. eigenvalues --   23.49816  23.53396  23.61233  23.70018  23.78550
 Alpha virt. eigenvalues --   23.81947  23.82872  23.84755  23.86760  23.90174
 Alpha virt. eigenvalues --   23.94688  23.96144  23.97206  24.03467  24.03669
 Alpha virt. eigenvalues --   24.05647  24.08167  24.09857  24.10942  24.11930
 Alpha virt. eigenvalues --   24.17158  24.17512  24.17688  24.18197  35.47982
 Alpha virt. eigenvalues --   35.53583  35.55900  35.61588  35.71405  35.76260
 Alpha virt. eigenvalues --   49.97677
          Condensed to atoms (all electrons):
 Mulliken charges:
               1
     1  C   -0.217088
     2  C   -0.221774
     3  C    0.132749
     4  C    0.058046
     5  C   -0.001489
     6  C   -0.017867
     7  N   -0.209105
     8  C    0.328804
     9  C   -0.281533
    10  C   -0.269014
    11  C   -0.224828
    12  C    0.265912
    13  C    0.080016
    14  H    0.259030
    15  H    0.233642
    16  C    0.599390
    17  N   -0.246690
    18  N   -0.211500
[...]
 5707,-0.00005493,0.00000010,-0.00016288,-0.00013605,-0.00000027,-0.000
 19424,0.00008611,-0.00000306,-0.00002582,0.00006317,-0.00000173,0.0000
 5990,0.00008038,-0.00000043,0.00009402,-0.00009817,0.00000486,0.000452
 99,-0.00090479,0.00005331,0.00048484,0.00105388,-0.00004178,-0.0007787
 3,-0.00094668,-0.00000493,-0.00095440,0.00025037,-0.00003197,-0.001286
 27,-0.00185186,0.00001894,0.00548598,-0.00925368,0.00080547,-0.0002863
 4,-0.00001527,-0.00000422,0.00008614,0.00013849,0.00000585,-0.00457074
 ,0.01095304,-0.00063245,-0.00010207,-0.00001126,-0.00000156,0.00000426
 ,0.00011988,-0.00000765,-0.00000588,0.00000897,-0.00000029,-0.00000838
 ,-0.00000321,-0.00000007,-0.00000453,-0.00003858,0.00000068,-0.0000316
 5,0.00001623,-0.00000086,0.00003284,0.00000180,0.00000050,-0.00002527,
 -0.00004179,0.00000033,-0.00000043,-0.00000535,0.00000009,0.00000318,0
 .00000316,0.,-0.03898875,-0.00570009,0.00005591,-0.00268793,-0.0033466
 0,0.00009176,0.01771356,-0.02789762,0.00204874,-0.01004052,0.00410728,
 -0.00040464,0.00780359,0.00403657,-0.00020843,-0.00697797,-0.01373576,
 0.00081465,-0.01778443,0.06652997,-0.00490666,-0.12039660,0.04593753,-
 0.00360972,0.00040970,0.00028542,-0.00005128,0.00339178,-0.00014738,0.
 00020019,-0.00155321,0.00404899,-0.00039837,0.00101461,0.00083063,-0.0
 0000215,-0.00001700,-0.00021045,-0.00000848,0.00022763,-0.00010659,0.0
 0007681,-0.00026125,0.00006860,0.00005284,-0.00011011,-0.00007948,0.00
 008992,0.00005501,0.00005621,-0.00019315,-0.00006970,0.00006421,0.0000
 0132,-0.00035960,-0.00088605,0.00005915,-0.00016750,0.00025627,-0.0001
 8755,-0.00022701,0.00031132,-0.00003968,-0.00002907,0.00016028,0.00007
 224,-0.00005094,0.00016844,0.00012347,-0.00003639,-0.00003559,0.000054
 52,0.00004647,-0.00007497,-0.00007182,-0.00008572,-0.00000084,-0.00000
 261,-0.38156040,0.01478648,-0.00247591,0.00042859,-0.00101962,0.000054
 07,-0.00047922,-0.00001921,-0.00001885,0.55250747,0.00015041,-0.000044
 85,0.00000314,-0.00009209,-0.00011480,0.00000063,-0.00027260,-0.000272
 96,-0.00000365,-0.00041808,0.00013268,-0.00000924,-0.00004682,0.000119
 74,-0.00000316,0.00011386,0.00014212,0.00000050,0.00023122,-0.00014427
 ,0.00001267,-0.00052322,0.00221571,-0.00012011,-0.00171242,-0.00134537
 ,0.00001603,0.00191728,0.00003047,0.00005445,0.00162907,-0.00095948,0.
 00008082,-0.00135870,0.00024345,-0.00002689,-0.00291046,0.00320060,-0.
 00015983,0.00008898,-0.00003520,0.00000389,0.00004510,0.00005470,-0.00
 000056,0.01868054,-0.00778950,0.00064936,-0.00023496,0.00000429,-0.000
 00470,0.00022188,0.00021230,-0.00000385,-0.00000888,0.00001381,-0.0000
 0044,-0.00001257,-0.00000467,0.,-0.00001068,-0.00007080,0.00000108,-0.
 00005919,0.00003306,-0.00000169,0.00006158,0.00000760,0.00000074,-0.00
 003981,-0.00007754,0.00000054,0.00000009,-0.00000716,0.00000022,0.0000
 0431,0.00000232,0.00000013,0.00098806,0.01106650,-0.00064782,-0.001657
 05,-0.00011134,-0.00000643,-0.00927857,-0.04637863,0.00381022,-0.00155
 822,-0.00213663,0.00033644,-0.00436519,-0.00862834,0.00069279,-0.00204
 707,0.01499250,-0.00078594,0.03245036,-0.03645407,0.00344009,0.0101025
 4,-0.30852855,0.01810084,0.00007366,-0.00030328,0.00003998,-0.00066440
 ,0.00110531,-0.00051732,0.00213834,-0.00225290,0.00036175,-0.00117599,
 -0.00127859,0.00001699,0.00009344,0.00032314,-0.00008010,-0.00034538,0
 .00011915,-0.00016950,0.00042214,-0.00011214,-0.00007743,0.00022003,0.
 00012593,-0.00014142,-0.00001426,-0.00014859,0.00035572,0.00015030,-0.
 00010778,-0.00000849,-0.00014699,0.00105982,-0.00012693,0.00018167,-0.
 00035012,0.00014944,0.00038273,-0.00022632,-0.00001285,-0.00002716,-0.
 00006631,-0.00027211,0.00013176,-0.00026370,-0.00015464,0.00014044,0.0
 0002682,-0.00008984,-0.00002269,0.00018224,0.00031487,-0.00003434,0.00
 000146,-0.00000014,0.04536034,-0.05861093,0.00309104,0.00017047,-0.001
 92819,0.00013721,0.00066850,0.00047331,0.00001084,-0.08776856,0.442867
 23,-0.00000977,0.00000294,0.00000022,0.00000599,0.00000749,0.00000010,
 0.00001746,0.00001784,0.00000321,0.00002733,-0.00000841,0.00000471,0.0
 0000304,-0.00000782,0.00000062,-0.00000743,-0.00000931,-0.00000153,-0.
 00001470,0.00000986,-0.00000256,0.00003981,-0.00017664,0.00003770,0.00
 013901,0.00010780,-0.00006150,-0.00015020,-0.00000358,-0.00018328,-0.0
 0014180,0.00008129,0.00004963,0.00013231,-0.00006472,-0.00009827,0.000
 25689,-0.00015363,0.00147903,-0.00000636,0.00000202,-0.00000422,-0.000
 00502,-0.00000062,0.00004810,-0.00134773,0.00049317,-0.00225578,0.0000
 1620,-0.00000076,-0.00000581,-0.00001530,-0.00001388,-0.00000096,0.000
 00058,-0.00000090,-0.00000050,0.00000082,0.00000029,-0.00000036,0.0000
 0069,0.00000464,0.00000017,0.00000389,-0.00000215,0.00000048,-0.000004
 06,-0.00000048,0.00000052,0.00000265,0.00000509,0.00000077,0.,0.000000
 47,-0.00000045,-0.00000027,-0.00000017,-0.00000086,-0.00035722,-0.0008
 4803,0.00234318,0.00007605,-0.00002239,-0.00042789,0.00078560,0.003639
 75,0.00990261,-0.00009494,0.00059180,0.00628852,0.00044989,0.00063984,
 -0.00117585,-0.00001233,-0.00084169,0.00573510,-0.00267630,0.00369381,
 0.00851972,-0.00097447,0.01815887,-0.05098182,0.00000688,-0.00001281,-
 0.00046052,0.00009719,-0.00042942,-0.00395248,-0.00014817,0.00017815,-
 0.00009634,0.00007463,0.00008785,0.00008657,-0.00001122,-0.00003903,-0
 .00001591,-0.00000877,0.00001326,0.00004103,-0.00002972,0.00001913,0.0
 0001461,-0.00001298,-0.00001161,0.00001553,0.00001711,-0.00000006,-0.0
 0003606,-0.00000661,0.00000659,0.00000413,0.00001119,-0.00011255,-0.00
 030715,0.00001153,-0.00004682,-0.00000706,-0.00002219,0.00004249,-0.00
 001637,-0.00002394,0.00003725,0.00001987,-0.00000261,0.00001090,-0.000
 00111,-0.00001188,-0.00000138,0.00000698,0.00001530,-0.00000817,-0.000
 01218,0.00000241,-0.00000014,-0.00000565,-0.00465546,0.00312194,-0.014
 53865,-0.00001469,0.00013135,0.00019694,-0.00005238,-0.00003169,-0.000
 01084,0.00862320,-0.02825724,0.03986254,0.00014266,0.00001183,0.000009
 29,0.00013599,0.00006461,-0.00000356,-0.00017718,-0.00002474,-0.000004
 63,0.00001678,-0.00008909,0.00001950,0.00102573,0.00198592,-0.00016406
 ,-0.00001064,0.00098365,-0.00000933,0.00010186,-0.00008577,0.00000399,
 0.00009251,0.00002426,0.00000057,-0.00001930,-0.00000349,-0.00000028,-
 0.00000511,-0.00000521,-0.00000015,-0.00000635,0.00000452,-0.00000039,
 -0.00000752,-0.00002050,0.00000093,0.00002020,0.00000496,0.00000033,0.
 00000772,-0.00000526,0.00000050,-0.00000278,-0.00000258,0.00000001,0.0
 0000741,-0.00002427,0.00000134,-0.00017122,-0.00001992,-0.00000203,0.0
 0003664,0.00000580,-0.00000126,0.00001063,0.00000809,0.00000014,0.0000
 0989,-0.00002304,-0.00000031,0.00867288,0.00545411,-0.00001404,-0.2282
 6848,-0.13872067,-0.00076647,-0.01700633,-0.02087753,0.00002233,-0.004
 13863,0.00321178,-0.00023953,0.00113385,0.00030318,0.00007610,-0.00092
 350,-0.00095785,0.00000059,-0.00003479,0.00001795,-0.00000178,-0.00000
 254,0.00000227,-0.00000018,-0.00001409,0.00000606,-0.00000068,0.000006
 07,-0.00000955,0.00000059,-0.00001089,-0.00000211,0.00000004,0.0000115
 9,0.00000101,0.00000054,-0.00000249,0.00000317,-0.00000032,0.00000491,
 0.00000820,-0.00000043,-0.00000049,0.00000043,0.00000004,-0.00000051,-
 0.00000020,0.00000003,-0.00001159,0.00000290,-0.00000128,0.00000213,0.
 00000237,0.00000020,-0.00000042,-0.00000058,-0.00000025,-0.00000004,-0
 .00000050,0.,-0.00000053,0.00000001,0.,-0.00000023,-0.00000029,0.00000
 031,0.00000007,0.00000006,-0.00000012,-0.00000003,0.00000015,0.0000000
 3,0.00000059,-0.00000334,0.00000060,0.00000005,0.00000066,-0.00000027,
 -0.00000050,0.00000026,0.,0.00000035,0.00000036,-0.00000009,-0.0000000
 6,0.00000042,0.00000024,-0.00000009,-0.00000010,0.00000003,0.00000001,
 -0.00000011,-0.00000012,0.00000348,0.00000524,-0.00000037,0.00000666,0
 .00000324,-0.00000014,0.00000094,-0.00000027,0.00000015,0.00000039,-0.
 00000201,-0.00000003,-0.00000333,-0.00000464,0.00000031,0.23854952,0.0
 0008870,-0.00057362,0.00000473,-0.00143110,-0.00013697,-0.00001736,0.0
 0021565,-0.00010150,0.00000711,0.00007726,0.00026115,-0.00002156,0.002
 53635,-0.00459175,0.00028145,0.00067610,-0.00059753,0.00001406,-0.0000
 0564,-0.00005518,0.00000105,0.00008930,0.00002529,0.00000132,-0.000018
 99,-0.00000428,-0.00000024,-0.00000732,-0.00000865,0.00000005,-0.00000
 596,0.00000406,-0.00000046,-0.00000636,-0.00001725,0.00000078,0.000018
 66,0.00000428,0.00000035,0.00000494,-0.00000436,0.00000040,-0.00000276
 ,-0.00000244,0.00000002,0.00000674,-0.00002173,0.00000122,-0.00017822,
 0.00001036,-0.00000302,-0.00010099,0.00000870,-0.00000105,-0.00011220,
 -0.00009951,-0.00000008,0.00006243,-0.00000022,0.00000222,-0.02588164,
 -0.01497680,-0.00010601,-0.13840789,-0.17674407,0.00011760,0.01038753,
 0.01153182,0.00003322,0.00265202,0.00011374,0.00015830,-0.00064669,0.0
 0076781,-0.00009072,0.00049137,0.00034398,0.00000324,-0.00003190,0.000
 01647,-0.00000164,-0.00000345,0.00000228,-0.00000025,-0.00001291,0.000
 00548,-0.00000062,0.00000549,-0.00000876,0.00000054,-0.00000996,-0.000
 00190,0.00000003,0.00001054,0.00000096,0.00000050,-0.00000225,0.000002
 85,-0.00000029,0.00000445,0.00000766,-0.00000040,-0.00000044,0.0000003
 9,0.00000004,-0.00000048,-0.00000018,0.00000003,-0.00001056,0.00000257
 ,-0.00000117,0.00000196,0.00000219,0.00000018,-0.00000039,-0.00000052,
 -0.00000022,-0.00000004,-0.00000047,0.,-0.00000048,0.,0.,-0.00000022,-
 0.00000026,0.00000028,0.00000007,0.00000006,-0.00000010,-0.00000002,0.
 00000013,0.00000002,0.00000052,-0.00000297,0.00000055,0.00000004,0.000
 00059,-0.00000025,-0.00000046,0.00000023,0.,0.00000030,0.00000033,-0.0
 0000008,-0.00000003,0.00000036,0.00000022,-0.00000009,-0.00000009,0.00
 000003,0.,-0.00000008,-0.00000011,0.00000460,0.00000724,-0.00000042,0.
 00000618,0.00000303,-0.00000012,0.00000083,-0.00000022,0.00000014,0.00
 000010,-0.00000195,0.,-0.00000307,-0.00000440,0.00000028,0.14920494,0.
 18369954,0.00000836,0.00000318,-0.00040682,0.00002364,0.00000809,0.000
 27597,-0.00000879,0.00000360,0.00009256,0.00001617,-0.00002525,-0.0009
 9685,-0.00017487,0.00027198,0.00831693,-0.00000470,0.00001869,-0.00050
 117,0.00000189,-0.00000053,-0.00001131,-0.00000041,0.00000031,0.000025
 87,-0.00000011,-0.00000006,-0.00000142,0.00000014,0.00000001,-0.000000
 49,0.00000005,-0.00000017,-0.00000296,0.,-0.00000002,-0.00000029,0.,0.
 00000002,0.00000073,-0.00000005,0.00000004,0.00000123,-0.00000001,0.00
 000001,0.00000025,0.,0.00000001,0.00000047,0.00000016,-0.00000085,-0.0
 0000879,0.00000122,0.00000143,0.00007530,0.00000235,0.00000184,-0.0000
 0636,-0.00000191,0.00000069,0.00005604,0.00056018,0.00044708,0.0038247
 2,-0.00077363,0.00011595,-0.03849240,-0.00054820,-0.00051346,0.0033450
 1,-0.00022848,0.00016785,0.00622002,0.00009208,-0.00007306,-0.00351382
 ,-0.00002568,-0.00002218,0.00004405,0.00000003,0.,-0.00000032,0.000000
 04,0.00000001,-0.00000086,0.00000001,0.00000001,-0.00000016,-0.0000000
 1,-0.00000003,-0.00000010,0.,0.,-0.00000019,0.,0.,0.00000013,0.,0.,-0.
 00000018,0.,-0.00000004,0.00000019,0.,0.,0.00000011,0.,0.,0.00000008,0
 .00000003,0.,-0.00000017,-0.00000004,0.,0.00000011,0.00000003,-0.00000
 001,0.,0.00000002,-0.00000004,-0.00000001,-0.00000002,0.00000003,0.,0.
 ,0.,0.,-0.00000003,0.00000004,0.00000001,0.00000003,-0.00000003,-0.000
 00001,-0.00000005,0.,0.00000013,0.00000005,0.,-0.00000002,-0.00000003,
 -0.00000002,0.,0.00000005,0.00000003,-0.00000003,0.,0.,0.,0.00000004,0
 .00000001,-0.00000001,-0.00000006,-0.00000001,0.00000001,-0.00000006,0
 .00000007,0.00000178,-0.00000001,0.,0.00000030,-0.00000001,0.00000001,
 0.00000013,0.,0.,0.00000056,0.,0.00000003,-0.00000029,0.00096838,-0.00
 028350,0.02646693,0.00017872,-0.00036285,0.00000788,0.00089990,0.00196
 705,0.00003737,0.00011523,0.00007943,0.00000157,-0.00072140,0.00113132
 ,-0.00003769,-0.01849221,0.01024788,-0.00058418,-0.00141916,-0.0038222
 1,-0.00005197,-0.00004964,-0.00016546,0.00000233,0.00016183,-0.0000028
 2,0.00000362,-0.00004946,-0.00000523,-0.00000096,-0.00000143,-0.000009
 86,0.00000020,-0.00000510,0.00000115,-0.00000033,-0.00001459,-0.000035
 72,0.00000138,0.00003103,0.00001243,0.00000027,0.00001323,-0.00000999,
 0.00000108,-0.00000577,-0.00000438,0.00000002,0.00001231,-0.00003638,0
 .00000206,-0.00030813,-0.00018856,-0.00000150,-0.00010955,-0.00021943,
 -0.00000178,-0.00002670,-0.00004001,-0.00000304,0.00030868,-0.00094607
 ,0.00004277,-0.30785363,0.08955899,-0.00635450,-0.00031545,-0.00031076
 ,-0.00007574,0.00181708,0.00061415,-0.00011830,0.00027002,-0.00063153,
 0.00002562,-0.00019096,-0.00004179,-0.00000375,-0.00007920,0.00009030,
 0.00001779,-0.00005449,0.00002759,-0.00000273,-0.00000629,0.00000314,-
 0.00000035,-0.00002285,0.00000948,-0.00000109,0.00000957,-0.00001525,0
 .00000093,-0.00001733,-0.00000334,0.00000006,0.00001822,0.00000176,0.0
 0000086,-0.00000387,0.00000489,-0.00000049,0.00000774,0.00001381,-0.00
 000073,-0.00000076,0.00000067,0.00000007,-0.00000085,-0.00000031,0.000
 00005,-0.00001828,0.00000441,-0.00000203,0.00000340,0.00000383,0.00000
 031,-0.00000069,-0.00000091,-0.00000039,-0.00000007,-0.00000081,-0.000
 00002,-0.00000083,0.,0.,-0.00000039,-0.00000045,0.00000049,0.00000014,
 0.00000011,-0.00000017,-0.00000004,0.00000021,0.00000003,0.00000089,-0
 .00000511,0.00000095,0.00000006,0.00000103,-0.00000044,-0.00000078,0.0
 0000041,0.,0.00000052,0.00000057,-0.00000013,-0.00000005,0.00000061,0.
 00000039,-0.00000017,-0.00000016,0.00000005,0.00000002,-0.00000014,-0.
 00000019,0.00000683,0.00001004,-0.00000055,0.00001060,0.00000538,-0.00
 000023,0.00000145,-0.00000039,0.00000024,0.00000034,-0.00000323,-0.000
 00003,-0.00000519,-0.00000808,0.00000053,0.00081818,0.00033544,0.00009
 223,0.32508931,0.00030755,0.00014704,0.00000380,-0.00137191,0.00110520
 ,-0.00010416,-0.00017594,0.00021906,-0.00000846,-0.00095537,0.00059645
 ,-0.00002346,-0.01941697,0.01031990,-0.00045438,-0.00293525,-0.0024217
 8,0.00009642,0.00004452,-0.00004189,0.00000173,-0.00001205,-0.00004462
 ,-0.00000003,-0.00000774,0.00000195,-0.00000033,0.00000262,0.00000240,
 0.,0.00000325,-0.00000557,0.00000050,0.00000252,0.00000366,-0.00000011
 ,-0.00000532,-0.00000029,-0.00000017,-0.00000053,0.00000002,-0.0000000
 2,-0.00000032,0.00000047,-0.00000002,-0.00000176,0.00000661,-0.0000003
 8,-0.00005556,-0.00001978,-0.00000073,-0.00008821,-0.00027388,0.000006
 25,0.00004866,0.00002424,0.00000359,0.00037698,-0.00060615,0.00001796,
 0.08988624,-0.09406155,0.00259407,0.03106421,-0.00562832,0.00073018,-0
 .00015676,-0.00543408,0.00024452,-0.00038850,-0.00088712,-0.00000034,0
 .00142032,-0.00045076,0.00003432,0.00009828,0.00011570,-0.00002231,0.0
 0000865,-0.00000473,0.00000048,-0.00000031,-0.00000040,0.00000002,0.00
 000345,-0.00000147,0.00000016,-0.00000152,0.00000223,-0.00000014,0.000
 00266,0.00000056,0.,-0.00000294,-0.00000024,-0.00000013,0.00000062,-0.
 00000077,0.00000009,-0.00000126,-0.00000200,0.00000010,0.00000008,-0.0
 0000010,-0.00000002,0.00000012,0.00000006,-0.00000001,0.00000290,-0.00
 000068,0.00000032,-0.00000057,-0.00000062,-0.00000006,0.00000010,0.000
 00015,0.00000006,0.00000001,0.00000013,0.,0.00000014,0.,0.,0.00000007,
 0.00000008,-0.00000007,-0.00000001,-0.00000003,0.00000003,0.,-0.000000
 04,0.,-0.00000016,0.00000079,-0.00000015,-0.00000002,-0.00000015,0.000
 00007,0.00000014,-0.00000006,0.00000001,-0.00000008,-0.00000009,0.,0.,
 -0.00000010,-0.00000006,0.00000003,0.00000003,-0.00000002,0.,0.0000000
 1,0.00000004,-0.00000026,-0.00000093,0.00000003,-0.00000151,-0.0000007
 4,0.00000002,-0.00000022,0.00000005,-0.00000005,-0.00000015,0.00000037
 ,0.00000002,0.00000073,0.00000115,-0.00000006,-0.00043879,0.00113411,-
 0.00012178,-0.09725487,0.09620654,-0.00000268,-0.00000853,0.00009069,0
 .00009414,-0.00003696,-0.00351642,0.00000729,-0.00000302,-0.00008002,0
 .00000104,0.00001293,0.00024676,-0.00002961,0.00005171,0.00342703,-0.0
 0006750,0.00007916,0.00559123,-0.00000211,-0.00000183,0.00000423,0.000
 00359,-0.00000016,-0.00004687,-0.00000024,-0.00000023,0.00000101,-0.00
 000022,-0.00000018,-0.00000125,-0.00000019,0.00000038,0.00000255,-0.00
 000022,-0.00000037,0.00000205,0.00000052,0.00000010,-0.00000065,0.0000
 0009,-0.00000012,-0.00000012,-0.00000004,-0.00000004,0.00000049,0.0000
 0021,-0.00000066,0.00000017,-0.00000280,-0.00000317,0.00001861,-0.0000
 0256,0.00000418,0.00014747,-0.00000440,0.00000278,0.00018935,0.0000014
 9,-0.00001019,0.00010740,-0.00636339,0.00260086,-0.03803755,-0.0006429
 1,0.00017088,0.00419706,-0.00010683,0.00025561,0.00797180,0.00002376,-
 0.00000220,-0.00052850,-0.00003020,0.00000816,0.00006303,0.00001784,-0
 .00002225,-0.00118510,-0.00000091,0.00000049,-0.00000011,-0.00000003,0
 .00000007,-0.00000045,-0.00000038,0.00000017,-0.00000024,0.00000016,-0
 .00000029,-0.00000006,-0.00000030,-0.00000007,-0.00000020,0.00000034,0
 .00000003,0.00000014,-0.00000008,0.00000009,-0.00000019,0.00000014,0.0
 0000019,0.00000014,-0.00000001,0.00000002,0.00000011,0.,0.,0.00000009,
 -0.00000031,0.00000007,-0.00000020,0.00000002,0.00000008,0.00000012,0.
 00000002,-0.00000003,-0.00000002,0.00000002,-0.00000005,-0.00000001,-0
 .00000003,0.00000003,-0.00000001,-0.00000002,-0.00000001,0.,-0.0000000
 3,0.00000004,0.,0.00000003,-0.00000002,-0.00000001,-0.00000003,-0.0000
 0009,0.00000014,0.00000005,0.00000001,-0.00000003,-0.00000005,-0.00000
 001,0.,0.00000006,0.00000004,-0.00000002,0.,0.00000002,0.,0.00000004,0
 .,-0.00000001,-0.00000006,-0.00000002,0.,0.00000007,0.00000009,-0.0000
 0114,0.00000017,0.00000009,0.00000033,0.,0.,0.00000014,0.,-0.00000004,
 0.00000058,-0.00000010,-0.00000010,-0.00000031,0.00010500,-0.00010029,
 -0.00480454,0.00700215,-0.00299734,0.02614130\\0.00000171,0.00000346,0
 .00000023,-0.00000178,-0.00000674,-0.00000022,0.00000373,-0.00000012,0
 .00000093,0.00000642,0.00000128,0.00000075,-0.00000326,0.00000353,-0.0
 0000066,0.00000244,-0.00000541,-0.00000020,0.00000290,-0.00000417,-0.0
 0000297,-0.00001214,-0.00000100,0.00000060,0.00000286,-0.00000216,0.00
 000002,0.00000636,0.00000204,-0.00000129,-0.00000299,0.00000053,0.0000
 0021,-0.00000380,-0.00000759,0.00000354,0.00001060,0.00000508,0.000001
 19,-0.00000101,-0.00000105,-0.00000008,-0.00000078,0.00000015,0.000000
 67,0.00000015,-0.00000855,0.00000302,-0.00000528,-0.00000189,0.0000037
 5,0.00000078,0.00000326,-0.00000419,-0.00000215,-0.00000166,0.00000002
 ,0.00000012,0.00000089,-0.00000052,0.00000162,-0.00000412,-0.00000085,
 -0.00000160,-0.00000069,-0.00000105,0.00000174,-0.00000277,-0.00000101
 ,-0.00000218,0.00000068,-0.00000094,0.00000111,-0.00000107,-0.00000123
 ,0.00000099,-0.00000119,-0.00000082,-0.00000690,0.00000286,0.00000062,
 -0.00000054,0.00000328,-0.00000921,-0.00000553,0.00000400,-0.00000114,
 0.00000317,-0.00000075,0.00000020,-0.00000233,-0.00000086,0.00000045,0
 .00000989,-0.00000222,0.00000521,-0.00000349,0.00000070,-0.00000047,0.
 00000532,0.00000657,-0.00000059,0.00000006,0.00000051,0.00000047,0.000
 00030,0.00000124,0.00000032,-0.00000542,0.00000297,-0.00001353,0.00000
 111,0.00000081,0.00000895,-0.00000082,0.00000111,-0.00000019,-0.000000
 67,0.00000052,0.00000011,-0.00000029,0.00000206,0.00000052,-0.00000043
 ,0.00000086,0.00000072,0.00000015,0.00000118,0.00000076,0.00000014,0.0
 0000112,0.00000075,0.00000152,0.00000165,0.00000457,-0.00000117,0.0000
 0138,-0.00000154,-0.00000042,0.00000045,-0.00000190,0.00000052,0.00000
 006,0.00000111,0.00000038,0.00000169,-0.00000006,0.00000013,0.00000182
 ,0.00000041,0.00000135,0.00000037,-0.00000024,-0.00000098,0.00000054,0
 .00000041,0.00000033,0.00000105,0.00000124,-0.00000058,-0.00000013,0.0
 0000006,0.00000072,0.00000035,0.00000444,-0.00000183,-0.00000400,0.000
 00072,0.00000014,-0.00000111,-0.00000124,-0.00000038,-0.00000079,-0.00
 000084\\\@


 THE WORLD IS MADE UP OF THE WILLS, THE WON'TS, AND THE CANT'S:
 THE WILLS DO EVERYTHING,
 THE WON'TS DO NOTHING,
 THE CAN'TS CAN'T DO ANYTHING.

                               -- FROM WALT DISNEY'S "BLACK HOLE"
 Job cpu time:       0 days  8 hours 21 minutes 50.5 seconds.
 File lengths (MBytes):  RWF=   3066 Int=      0 D2E=      0 Chk=     50 Scr=      1
 Normal termination of Gaussian 09 at Mon Apr 27 08:15:37 2015.
