 Entering Gaussian System, Link 0=/opt/gaussian/g09/g09
 Input=ch5n2o.com
 Output=Gaussian.log
 Initial command:
 /opt/gaussian/g09/l1.exe "/oasis/scratch/comet/scigap/temp_project/seagrid-workdirs/PROCESS_d1d7ca21-0d6f-4875-b2ab-ec9c74079774/Gau-26977.inp" -scrdir="/oasis/scratch/comet/scigap/temp_project/seagrid-workdirs/PROCESS_d1d7ca21-0d6f-4875-b2ab-ec9c74079774/"
 Entering Link 1 = /opt/gaussian/g09/l1.exe PID=     26978.
  
 Copyright (c) 1988,1990,1992,1993,1995,1998,2003,2009,2013,
            Gaussian, Inc.  All Rights Reserved.
  
 This is part of the Gaussian(R) 09 program.  It is based on
 the Gaussian(R) 03 system (copyright 2003, Gaussian, Inc.),
 the Gaussian(R) 98 system (copyright 1998, Gaussian, Inc.),
 the Gaussian(R) 94 system (copyright 1995, Gaussian, Inc.),
 the Gaussian 92(TM) system (copyright 1992, Gaussian, Inc.),
 the Gaussian 90(TM) system (copyright 1990, Gaussian, Inc.),
 the Gaussian 88(TM) system (copyright 1988, Gaussian, Inc.),
 the Gaussian 86(TM) system (copyright 1986, Carnegie Mellon
 University), and the Gaussian 82(TM) system (copyright 1983,
 Carnegie Mellon University). Gaussian is a federally registered
 trademark of Gaussian, Inc.
  
 This software contains proprietary and confidential information,
 including trade secrets, belonging to Gaussian, Inc.
  
 This software is provided under written license and may be
 used, copied, transmitted, or stored only in accord with that
 written license.
  
 The following legend is applicable only to US Government
 contracts under FAR:
  
                    RESTRICTED RIGHTS LEGEND
  
 Use, reproduction and disclosure by the US Government is
 subject to restrictions as set forth in subparagraphs (a)
 and (c) of the Commercial Computer Software - Restricted
 Rights clause in FAR 52.227-19.
  
 Gaussian, Inc.
 340 Quinnipiac St., Bldg. 40, Wallingford CT 06492
  
  
 ---------------------------------------------------------------
 Warning -- This program may not be used in any manner that
 competes with the business of Gaussian, Inc. or will provide
 assistance to any competitor of Gaussian, Inc.  The licensee
 of this program is prohibited from giving any competitor of
 Gaussian, Inc. access to this program.  By using this program,
 the user acknowledges that Gaussian, Inc. is engaged in the
 business of creating and licensing software in the field of
 computational chemistry and represents and warrants to the
 licensee that it is not a competitor of Gaussian, Inc. and that
 it will not use this program in any manner prohibited above.
 ---------------------------------------------------------------
  

 Cite this work as:
 Gaussian 09, Revision D.01,
 M. J. Frisch, G. W. Trucks, H. B. Schlegel, G. E. Scuseria, 
 M. A. Robb, J. R. Cheeseman, G. Scalmani, V. Barone, B. Mennucci, 
 G. A. Petersson, H. Nakatsuji, M. Caricato, X. Li, H. P. Hratchian, 
 A. F. Izmaylov, J. Bloino, G. Zheng, J. L. Sonnenberg, M. Hada, 
 M. Ehara, K. Toyota, R. Fukuda, J. Hasegawa, M. Ishida, T. Nakajima, 
 Y. Honda, O. Kitao, H. Nakai, T. Vreven, J. A. Montgomery, Jr., 
 J. E. Peralta, F. Ogliaro, M. Bearpark, J. J. Heyd, E. Brothers, 
 K. N. Kudin, V. N. Staroverov, T. Keith, R. Kobayashi, J. Normand, 
 K. Raghavachari, A. Rendell, J. C. Burant, S. S. Iyengar, J. Tomasi, 
 M. Cossi, N. Rega, J. M. Millam, M. Klene, J. E. Knox, J. B. Cross, 
 V. Bakken, C. Adamo, J. Jaramillo, R. Gomperts, R. E. Stratmann, 
 O. Yazyev, A. J. Austin, R. Cammi, C. Pomelli, J. W. Ochterski, 
 R. L. Martin, K. Morokuma, V. G. Zakrzewski, G. A. Voth, 
 P. Salvador, J. J. Dannenberg, S. Dapprich, A. D. Daniels, 
 O. Farkas, J. B. Foresman, J. V. Ortiz, J. Cioslowski, 
 and D. J. Fox, Gaussian, Inc., Wallingford CT, 2013.
 
 ******************************************
 Gaussian 09:  ES64L-G09RevD.01 24-Apr-2013
                13-Jan-2016 
 ******************************************
 %nprocshared=24
 Will use up to   24 processors via shared memory.
 %mem=4000MB
 ----------------------
 # b3lyp/6-31g(d,p) opt
 ----------------------
 1/14=-1,18=20,19=15,26=3,38=1/1,3;
 2/9=110,12=2,17=6,18=5,40=1/2;
 3/5=1,6=6,7=101,11=2,16=1,25=1,30=1,71=1,74=-5/1,2,3;
 4//1;
 5/5=2,38=5/2;
 6/7=2,8=2,9=2,10=2,28=1/1;
 7//1,2,3,16;
 1/14=-1,18=20,19=15,26=3/3(2);
 2/9=110/2;
 99//99;
 2/9=110/2;
 3/5=1,6=6,7=101,11=2,16=1,25=1,30=1,71=1,74=-5/1,2,3;
 4/5=5,16=3,69=1/1;
 5/5=2,38=5/2;
 7//1,2,3,16;
 1/14=-1,18=20,19=15,26=3/3(-5);
 2/9=110/2;
 6/7=2,8=2,9=2,10=2,19=2,28=1/1;
 99/9=1/99;
 -------------------
 Title Card Required
 -------------------
 Symbolic Z-matrix:
 Charge =  0 Multiplicity = 2
 N                    -1.17401  -0.79977   0.00422 
 H                    -2.09362  -0.52193   0.33664 
 H                    -1.15695  -0.83132  -1.01253 
 C                    -0.12177   0.12843   0.46214 
 H                    -0.13      0.12092   1.56608 
 O                    -0.5726    1.29093  -0.06416 
 N                     1.47836  -0.40477  -0.2733 
 H                     2.03849   0.41914  -0.4615 
 H                     1.993    -1.00994   0.35816 
 
 Add virtual bond connecting atoms N7         and C4         Dist= 3.48D+00.

 GradGradGradGradGradGradGradGradGradGradGradGradGradGradGradGradGradGrad
 Berny optimization.
 Initialization pass.
                           ----------------------------
                           !    Initial Parameters    !
                           ! (Angstroms and Degrees)  !
 --------------------------                            --------------------------
 ! Name  Definition              Value          Derivative Info.                !
 --------------------------------------------------------------------------------
 ! R1    R(1,2)                  1.0166         estimate D2E/DX2                !
 ! R2    R(1,3)                  1.0174         estimate D2E/DX2                !
 ! R3    R(1,4)                  1.476          estimate D2E/DX2                !
 ! R4    R(4,5)                  1.104          estimate D2E/DX2                !
 ! R5    R(4,6)                  1.3534         estimate D2E/DX2                !
 ! R6    R(4,7)                  1.84           estimate D2E/DX2                !
 ! R7    R(7,8)                  1.0139         estimate D2E/DX2                !
 ! R8    R(7,9)                  1.0148         estimate D2E/DX2                !
 ! A1    A(2,1,3)              110.5147         estimate D2E/DX2                !
 ! A2    A(2,1,4)              111.8141         estimate D2E/DX2                !
 ! A3    A(3,1,4)              108.5181         estimate D2E/DX2                !
 ! A4    A(1,4,5)              107.4962         estimate D2E/DX2                !
 ! A5    A(1,4,6)              100.4892         estimate D2E/DX2                !
 ! A6    A(1,4,7)              108.2843         estimate D2E/DX2                !
 ! A7    A(5,4,6)              113.0927         estimate D2E/DX2                !
 ! A8    A(5,4,7)              113.84           estimate D2E/DX2                !
 ! A9    A(6,4,7)              112.5302         estimate D2E/DX2                !
 ! A10   A(4,7,8)              108.6111         estimate D2E/DX2                !
 ! A11   A(4,7,9)              111.4152         estimate D2E/DX2                !
 ! A12   A(8,7,9)              108.6583         estimate D2E/DX2                !
 ! D1    D(2,1,4,5)             59.9352         estimate D2E/DX2                !
 ! D2    D(2,1,4,6)            -58.5281         estimate D2E/DX2                !
 ! D3    D(2,1,4,7)           -176.6648         estimate D2E/DX2                !
 ! D4    D(3,1,4,5)           -177.9137         estimate D2E/DX2                !
 ! D5    D(3,1,4,6)             63.623          estimate D2E/DX2                !
 ! D6    D(3,1,4,7)            -54.5137         estimate D2E/DX2                !
 ! D7    D(1,4,7,8)            146.1326         estimate D2E/DX2                !
 ! D8    D(1,4,7,9)            -94.2184         estimate D2E/DX2                !
 ! D9    D(5,4,7,8)            -94.3841         estimate D2E/DX2                !
 ! D10   D(5,4,7,9)             25.265          estimate D2E/DX2                !
 ! D11   D(6,4,7,8)             35.9728         estimate D2E/DX2                !
 ! D12   D(6,4,7,9)            155.6218         estimate D2E/DX2                !
 --------------------------------------------------------------------------------
 Trust Radius=3.00D-01 FncErr=1.00D-07 GrdErr=1.00D-06
 Number of steps in this run=     42 maximum allowed number of steps=    100.
 GradGradGradGradGradGradGradGradGradGradGradGradGradGradGradGradGradGrad

                          Input orientation:                          
 ---------------------------------------------------------------------
 Center     Atomic      Atomic             Coordinates (Angstroms)
 Number     Number       Type             X           Y           Z
 ---------------------------------------------------------------------
      1          7           0       -1.174008   -0.799769    0.004223
      2          1           0       -2.093621   -0.521931    0.336643
      3          1           0       -1.156947   -0.831317   -1.012529
      4          6           0       -0.121774    0.128432    0.462139
      5          1           0       -0.130001    0.120919    1.566076
      6          8           0       -0.572604    1.290926   -0.064157
      7          7           0        1.478357   -0.404771   -0.273302
      8          1           0        2.038489    0.419136   -0.461500
      9          1           0        1.993002   -1.009939    0.358160
 ---------------------------------------------------------------------
                    Distance matrix (angstroms):
                    1          2          3          4          5
     1  N    0.000000
     2  H    1.016555   0.000000
     3  H    1.017384   1.671330   0.000000
     4  C    1.475954   2.080121   2.041408   0.000000
     5  H    2.092129   2.404281   2.934378   1.103993   0.000000
     6  O    2.176550   2.400122   2.396827   1.353376   2.054866
     7  N    2.695939   3.625574   2.770059   1.840000   2.499295
     8  H    3.467386   4.312421   3.475353   2.367352   2.983680
     9  H    3.193650   4.115715   3.439895   2.403951   2.691662
                    6          7          8          9
     6  O    0.000000
     7  N    2.669377   0.000000
     8  H    2.781314   1.013898   0.000000
     9  H    3.471984   1.014806   1.648080   0.000000
 Stoichiometry    CH5N2O(2)
 Framework group  C1[X(CH5N2O)]
 Deg. of freedom    21
 Full point group                 C1      NOp   1
 Largest Abelian subgroup         C1      NOp   1
 Largest concise Abelian subgroup C1      NOp   1
                         Standard orientation:                         
 ---------------------------------------------------------------------
 Center     Atomic      Atomic             Coordinates (Angstroms)
 Number     Number       Type             X           Y           Z
 ---------------------------------------------------------------------
      1          7           0       -0.974286   -0.964151   -0.086249
      2          1           0       -1.945560   -0.803456    0.167108
      3          1           0       -0.873421   -1.015928   -1.097296
      4          6           0       -0.091555    0.105526    0.418743
      5          1           0       -0.185437    0.121723    1.518618
      6          8           0       -0.647600    1.185809   -0.177437
      7          7           0        1.617303   -0.226916   -0.176982
      8          1           0        2.078067    0.659623   -0.349418
      9          1           0        2.155363   -0.744119    0.510640
 ---------------------------------------------------------------------
 Rotational constants (GHZ):     10.9972857      6.5139393      4.6200117
 Standard basis: 6-31G(d,p) (6D, 7F)
 There are    85 symmetry adapted cartesian basis functions of A   symmetry.
 There are    85 symmetry adapted basis functions of A   symmetry.
    85 basis functions,   147 primitive gaussians,    85 cartesian basis functions
    17 alpha electrons       16 beta electrons
       nuclear repulsion energy       121.5893739373 Hartrees.
 NAtoms=    9 NActive=    9 NUniq=    9 SFac= 1.00D+00 NAtFMM=   60 NAOKFM=F Big=F
 Integral buffers will be    131072 words long.
 Raffenetti 2 integral format.
 Two-electron integral symmetry is turned on.
 One-electron integrals computed using PRISM.
 NBasis=    85 RedAO= T EigKep=  4.55D-03  NBF=    85
 NBsUse=    85 1.00D-06 EigRej= -1.00D+00 NBFU=    85
 ExpMin= 1.61D-01 ExpMax= 5.48D+03 ExpMxC= 8.25D+02 IAcc=1 IRadAn=         1 AccDes= 0.00D+00
 Harris functional with IExCor=  402 and IRadAn=       1 diagonalized for initial guess.
 HarFok:  IExCor=  402 AccDes= 0.00D+00 IRadAn=         1 IDoV= 1 UseB2=F ITyADJ=14
 ICtDFT=  3500011 ScaDFX=  1.000000  1.000000  1.000000  1.000000
 FoFCou: FMM=F IPFlag=           0 FMFlag=      100000 FMFlg1=           0
         NFxFlg=           0 DoJE=T BraDBF=F KetDBF=T FulRan=T
         wScrn=  0.000000 ICntrl=     500 IOpCl=  0 I1Cent=   200000004 NGrid=           0
         NMat0=    1 NMatS0=      1 NMatT0=    0 NMatD0=    1 NMtDS0=    0 NMtDT0=    0
 Petite list used in FoFCou.
 Initial guess <Sx>= 0.0000 <Sy>= 0.0000 <Sz>= 0.5000 <S**2>= 0.7500 S= 0.5000
 Keep R1 and R2 ints in memory in canonical form, NReq=14312049.
 Requested convergence on RMS density matrix=1.00D-08 within 128 cycles.
 Requested convergence on MAX density matrix=1.00D-06.
 Requested convergence on             energy=1.00D-06.
 No special actions if energy rises.
 Integral accuracy reduced to 1.0D-05 until final iterations.
 Initial convergence to 1.0D-05 achieved.  Increase integral accuracy.
 SCF Done:  E(UB3LYP) =  -225.730111780     A.U. after   24 cycles
            NFock= 24  Conv=0.90D-08     -V/T= 2.0104
 <Sx>= 0.0000 <Sy>= 0.0000 <Sz>= 0.5000 <S**2>= 0.7557 S= 0.5029
 <L.S>= 0.000000000000E+00
 Annihilation of the first spin contaminant:
 S**2 before annihilation     0.7557,   after     0.7500

 **********************************************************************

            Population analysis using the SCF density.

 **********************************************************************

 Orbital symmetries:
 Alpha Orbitals:
       Occupied  (A) (A) (A) (A) (A) (A) (A) (A) (A) (A) (A) (A)
                 (A) (A) (A) (A) (A)
       Virtual   (A) (A) (A) (A) (A) (A) (A) (A) (A) (A) (A) (A)
                 (A) (A) (A) (A) (A) (A) (A) (A) (A) (A) (A) (A)
                 (A) (A) (A) (A) (A) (A) (A) (A) (A) (A) (A) (A)
                 (A) (A) (A) (A) (A) (A) (A) (A) (A) (A) (A) (A)
                 (A) (A) (A) (A) (A) (A) (A) (A) (A) (A) (A) (A)
                 (A) (A) (A) (A) (A) (A) (A) (A)
 Beta  Orbitals:
       Occupied  (A) (A) (A) (A) (A) (A) (A) (A) (A) (A) (A) (A)
                 (A) (A) (A) (A)
       Virtual   (A) (A) (A) (A) (A) (A) (A) (A) (A) (A) (A) (A)
                 (A) (A) (A) (A) (A) (A) (A) (A) (A) (A) (A) (A)
                 (A) (A) (A) (A) (A) (A) (A) (A) (A) (A) (A) (A)
                 (A) (A) (A) (A) (A) (A) (A) (A) (A) (A) (A) (A)
                 (A) (A) (A) (A) (A) (A) (A) (A) (A) (A) (A) (A)
                 (A) (A) (A) (A) (A) (A) (A) (A) (A)
 The electronic state is 2-A.
 Alpha  occ. eigenvalues --  -19.17890 -14.37910 -14.31495 -10.31182  -1.03974
 Alpha  occ. eigenvalues --   -0.89550  -0.80805  -0.62766  -0.53775  -0.47633
 Alpha  occ. eigenvalues --   -0.46122  -0.43508  -0.40340  -0.34482  -0.28735
 Alpha  occ. eigenvalues --   -0.28591  -0.23117
 Alpha virt. eigenvalues --    0.04240   0.07603   0.11584   0.12920   0.16617
 Alpha virt. eigenvalues --    0.18506   0.19145   0.26306   0.52582   0.54653
 Alpha virt. eigenvalues --    0.61215   0.65342   0.66767   0.70983   0.74301
 Alpha virt. eigenvalues --    0.76056   0.82581   0.83580   0.85294   0.87935
 Alpha virt. eigenvalues --    0.88451   0.89123   0.95410   0.97643   1.03056
 Alpha virt. eigenvalues --    1.06836   1.17324   1.26884   1.32859   1.37115
 Alpha virt. eigenvalues --    1.46555   1.56862   1.60236   1.63165   1.69035
 Alpha virt. eigenvalues --    1.76828   1.84523   1.85354   1.97473   2.01268
 Alpha virt. eigenvalues --    2.07458   2.12951   2.14125   2.20808   2.26297
 Alpha virt. eigenvalues --    2.28627   2.33746   2.36073   2.40082   2.48960
 Alpha virt. eigenvalues --    2.52528   2.60235   2.62438   2.71359   2.76186
 Alpha virt. eigenvalues --    2.81241   2.84775   2.95086   2.96019   3.22436
 Alpha virt. eigenvalues --    3.28376   3.30705   3.44184   3.46704   3.65767
 Alpha virt. eigenvalues --    3.88496   3.98472   4.41660
  Beta  occ. eigenvalues --  -19.15977 -14.37197 -14.31484 -10.31275  -1.00424
  Beta  occ. eigenvalues --   -0.86979  -0.80678  -0.61887  -0.53257  -0.45771
  Beta  occ. eigenvalues --   -0.45280  -0.41875  -0.39306  -0.29127  -0.27343
  Beta  occ. eigenvalues --   -0.22755
  Beta virt. eigenvalues --   -0.13313   0.04411   0.08109   0.11657   0.13023
  Beta virt. eigenvalues --    0.16709   0.18928   0.19484   0.27455   0.52643
  Beta virt. eigenvalues --    0.55340   0.61304   0.65712   0.69053   0.71490
  Beta virt. eigenvalues --    0.74907   0.77527   0.83047   0.83834   0.86016
  Beta virt. eigenvalues --    0.88190   0.89089   0.89579   0.96773   0.98018
  Beta virt. eigenvalues --    1.05893   1.08130   1.17908   1.28355   1.33340
  Beta virt. eigenvalues --    1.37785   1.47165   1.57289   1.60497   1.63866
  Beta virt. eigenvalues --    1.71593   1.79124   1.86184   1.87435   1.98297
  Beta virt. eigenvalues --    2.02578   2.08734   2.13281   2.14250   2.20955
  Beta virt. eigenvalues --    2.26720   2.28905   2.34245   2.36747   2.40838
  Beta virt. eigenvalues --    2.49753   2.53277   2.60470   2.62863   2.72099
  Beta virt. eigenvalues --    2.76785   2.81713   2.85843   2.95466   2.96138
  Beta virt. eigenvalues --    3.22723   3.28471   3.30851   3.44369   3.46785
  Beta virt. eigenvalues --    3.68336   3.88973   3.99287   4.41724
          Condensed to atoms (all electrons):
               1          2          3          4          5          6
     1  N    6.769265   0.323238   0.313650   0.250763  -0.062519  -0.053723
     2  H    0.323238   0.443962  -0.025061  -0.028766  -0.002816   0.006516
     3  H    0.313650  -0.025061   0.428176  -0.022716   0.007480   0.006360
     4  C    0.250763  -0.028766  -0.022716   4.558822   0.370404   0.272072
     5  H   -0.062519  -0.002816   0.007480   0.370404   0.672818  -0.050882
     6  O   -0.053723   0.006516   0.006360   0.272072  -0.050882   8.219996
     7  N   -0.030798   0.003213   0.002784   0.247732  -0.040732  -0.035958
     8  H    0.001678  -0.000122  -0.000118  -0.015686   0.001222   0.003349
     9  H    0.001495  -0.000156  -0.000125  -0.011463   0.000922   0.001594
               7          8          9
     1  N   -0.030798   0.001678   0.001495
     2  H    0.003213  -0.000122  -0.000156
     3  H    0.002784  -0.000118  -0.000125
     4  C    0.247732  -0.015686  -0.011463
     5  H   -0.040732   0.001222   0.000922
     6  O   -0.035958   0.003349   0.001594
     7  N    6.895726   0.312051   0.302730
     8  H    0.312051   0.481927  -0.032089
     9  H    0.302730  -0.032089   0.498262
          Atomic-Atomic Spin Densities.
               1          2          3          4          5          6
     1  N    0.382340   0.002300   0.001534   0.014443  -0.001620  -0.075198
     2  H    0.002300  -0.010836   0.000313  -0.000722  -0.000096  -0.000398
     3  H    0.001534   0.000313  -0.011712  -0.000430  -0.000210   0.000445
     4  C    0.014443  -0.000722  -0.000430  -0.053807   0.004558  -0.019787
     5  H   -0.001620  -0.000096  -0.000210   0.004558  -0.001466   0.001996
     6  O   -0.075198  -0.000398   0.000445  -0.019787   0.001996   0.824785
     7  N   -0.001535  -0.000070   0.000078   0.007690   0.001437   0.000878
     8  H    0.000070   0.000004   0.000008  -0.000764  -0.000022  -0.000126
     9  H    0.000012   0.000004  -0.000012  -0.000643  -0.000162  -0.000048
               7          8          9
     1  N   -0.001535   0.000070   0.000012
     2  H   -0.000070   0.000004   0.000004
     3  H    0.000078   0.000008  -0.000012
     4  C    0.007690  -0.000764  -0.000643
     5  H    0.001437  -0.000022  -0.000162
     6  O    0.000878  -0.000126  -0.000048
     7  N   -0.000008   0.001600   0.001644
     8  H    0.001600  -0.001660  -0.000198
     9  H    0.001644  -0.000198  -0.001578
 Mulliken charges and spin densities:
               1          2
     1  N   -0.513050   0.322345
     2  H    0.279992  -0.009500
     3  H    0.289570  -0.009987
     4  C    0.378837  -0.049461
     5  H    0.104104   0.004414
     6  O   -0.369324   0.732546
     7  N   -0.656748   0.011714
     8  H    0.247789  -0.001088
     9  H    0.238830  -0.000982
 Sum of Mulliken charges =   0.00000   1.00000
 Mulliken charges and spin densities with hydrogens summed into heavy atoms:
               1          2
     1  N    0.056512   0.302858
     4  C    0.482940  -0.045047
     6  O   -0.369324   0.732546
     7  N   -0.170129   0.009643
 Electronic spatial extent (au):  <R**2>=            295.4270
 Charge=              0.0000 electrons
 Dipole moment (field-independent basis, Debye):
    X=             -0.7311    Y=             -0.7908    Z=              1.1891  Tot=              1.6043
 Quadrupole moment (field-independent basis, Debye-Ang):
   XX=            -19.1203   YY=            -27.2800   ZZ=            -23.0579
   XY=              3.7169   XZ=              2.0875   YZ=              0.5996
 Traceless Quadrupole moment (field-independent basis, Debye-Ang):
   XX=              4.0324   YY=             -4.1273   ZZ=              0.0948
   XY=              3.7169   XZ=              2.0875   YZ=              0.5996
 Octapole moment (field-independent basis, Debye-Ang**2):
  XXX=             -2.0477  YYY=              3.3640  ZZZ=             -0.6842  XYY=              2.6420
  XXY=             -1.6053  XXZ=              2.9861  XZZ=             -3.3343  YZZ=             -0.6570
  YYZ=             -0.7562  XYZ=             -3.9134
 Hexadecapole moment (field-independent basis, Debye-Ang**3):
 XXXX=           -160.0064 YYYY=           -115.6815 ZZZZ=            -41.2056 XXXY=             10.0150
 XXXZ=              5.7712 YYYX=              1.1552 YYYZ=              1.5649 ZZZX=              3.9441
 ZZZY=              1.6313 XXYY=            -48.0017 XXZZ=            -41.0560 YYZZ=            -24.4340
 XXYZ=             -5.1848 YYXZ=              2.7737 ZZXY=              1.9118
 N-N= 1.215893739373D+02 E-N=-7.713295396360D+02  KE= 2.233974352480D+02
                          Isotropic Fermi Contact Couplings
        Atom                 a.u.       MegaHertz       Gauss      10(-4) cm-1
     1  N(14)              0.00314       1.01522       0.36226       0.33864
     2  H(1)              -0.00294     -13.16312      -4.69693      -4.39074
     3  H(1)              -0.00398     -17.77047      -6.34094      -5.92759
     4  C(13)             -0.03088     -34.71020     -12.38546     -11.57808
     5  H(1)               0.00182       8.14747       2.90722       2.71770
     6  O(17)              0.08060     -48.85881     -17.43404     -16.29754
     7  N(14)             -0.01249      -4.03525      -1.43988      -1.34601
     8  H(1)              -0.00013      -0.55951      -0.19965      -0.18663
     9  H(1)              -0.00013      -0.57407      -0.20484      -0.19149
 --------------------------------------------------------
       Center         ----  Spin Dipole Couplings  ----
                      3XX-RR        3YY-RR        3ZZ-RR
 --------------------------------------------------------
     1   Atom       -0.422255      0.805954     -0.383699
     2   Atom        0.041457     -0.007339     -0.034118
     3   Atom       -0.041389     -0.000468      0.041857
     4   Atom       -0.017264      0.030353     -0.013089
     5   Atom       -0.010169     -0.000235      0.010404
     6   Atom       -0.048033      0.877046     -0.829013
     7   Atom       -0.005613      0.005663     -0.000050
     8   Atom        0.008970     -0.003118     -0.005852
     9   Atom        0.003414     -0.001735     -0.001679
 --------------------------------------------------------
                        XY            XZ            YZ
 --------------------------------------------------------
     1   Atom       -0.036059      0.003006     -0.216597
     2   Atom        0.007368     -0.026485     -0.006544
     3   Atom       -0.001040     -0.009805      0.017520
     4   Atom       -0.013687      0.021573     -0.014686
     5   Atom       -0.001083      0.008468     -0.008320
     6   Atom        1.739672      0.855674      1.142205
     7   Atom       -0.019844     -0.015505      0.019116
     8   Atom       -0.001187     -0.002012     -0.000258
     9   Atom       -0.003301      0.002314     -0.001146
 --------------------------------------------------------


 ---------------------------------------------------------------------------------
              Anisotropic Spin Dipole Couplings in Principal Axis System
 ---------------------------------------------------------------------------------

       Atom             a.u.   MegaHertz   Gauss  10(-4) cm-1        Axes

              Baa    -0.4260   -16.429    -5.862    -5.480  0.7754  0.1313  0.6177
     1 N(14)  Bbb    -0.4192   -16.168    -5.769    -5.393 -0.6309  0.1170  0.7670
              Bcc     0.8452    32.597    11.631    10.873 -0.0284  0.9844 -0.1736
 
              Baa    -0.0429   -22.911    -8.175    -7.642  0.2883  0.1151  0.9506
     2 H(1)   Bbb    -0.0083    -4.407    -1.572    -1.470 -0.1797  0.9816 -0.0643
              Bcc     0.0512    27.318     9.748     9.112  0.9405  0.1523 -0.3036
 
              Baa    -0.0426   -22.705    -8.102    -7.573  0.9924 -0.0257  0.1206
     3 H(1)   Bbb    -0.0066    -3.537    -1.262    -1.180  0.0642  0.9426 -0.3276
              Bcc     0.0492    26.241     9.364     8.753 -0.1053  0.3329  0.9371
 
              Baa    -0.0369    -4.945    -1.765    -1.650  0.7418  0.0045 -0.6706
     4 C(13)  Bbb    -0.0049    -0.661    -0.236    -0.220  0.5812  0.4945  0.6462
              Bcc     0.0418     5.606     2.000     1.870 -0.3346  0.8692 -0.3642
 
              Baa    -0.0135    -7.205    -2.571    -2.403  0.9106 -0.1637 -0.3795
     5 H(1)   Bbb    -0.0038    -2.024    -0.722    -0.675  0.3022  0.8900  0.3413
              Bcc     0.0173     9.229     3.293     3.078  0.2819 -0.4255  0.8599
 
              Baa    -1.4066   101.780    36.318    33.950  0.3169 -0.6062  0.7294
     6 O(17)  Bbb    -1.3725    99.311    35.437    33.126  0.7614 -0.2960 -0.5768
              Bcc     2.7791  -201.091   -71.754   -67.077  0.5656  0.7382  0.3678
 
              Baa    -0.0207    -0.799    -0.285    -0.267  0.8371  0.5292  0.1385
     7 N(14)  Bbb    -0.0163    -0.628    -0.224    -0.209  0.2015 -0.5336  0.8214
              Bcc     0.0370     1.427     0.509     0.476 -0.5086  0.6597  0.5533
 
              Baa    -0.0062    -3.296    -1.176    -1.099  0.1410  0.1374  0.9804
     8 H(1)   Bbb    -0.0032    -1.689    -0.603    -0.563  0.0718  0.9863 -0.1486
              Bcc     0.0093     4.985     1.779     1.663  0.9874 -0.0914 -0.1292
 
              Baa    -0.0033    -1.786    -0.637    -0.596  0.4342  0.9007  0.0164
     9 H(1)   Bbb    -0.0026    -1.365    -0.487    -0.455 -0.2971  0.1260  0.9465
              Bcc     0.0059     3.151     1.124     1.051  0.8504 -0.4158  0.3223
 

 ---------------------------------------------------------------------------------

 Calling FoFJK, ICntrl=      2127 FMM=F ISym2X=0 I1Cent= 0 IOpClX= 1 NMat=1 NMatS=1 NMatT=0.
 ***** Axes restored to original set *****
 -------------------------------------------------------------------
 Center     Atomic                   Forces (Hartrees/Bohr)
 Number     Number              X              Y              Z
 -------------------------------------------------------------------
      1        7           0.020059611   -0.000612857   -0.006338317
      2        1           0.000452190    0.002131548    0.001313025
      3        1          -0.000767572   -0.000838389   -0.000930273
      4        6           0.032507342    0.003299154   -0.020402469
      5        1           0.012853005   -0.002958868   -0.003868541
      6        8           0.014365656   -0.018554607    0.003142103
      7        7          -0.072681540    0.006975359    0.010652903
      8        1          -0.003743265    0.008195820    0.006712292
      9        1          -0.003045426    0.002362840    0.009719277
 -------------------------------------------------------------------
 Cartesian Forces:  Max     0.072681540 RMS     0.017601752

 GradGradGradGradGradGradGradGradGradGradGradGradGradGradGradGradGradGrad
 Berny optimization.
 FormGI is forming the generalized inverse of G from B-inverse, IUseBI=4.
 Internal  Forces:  Max     0.085015757 RMS     0.017229582
 Search for a local minimum.
 Step number   1 out of a maximum of   42
 All quantities printed in internal units (Hartrees-Bohrs-Radians)
 Mixed Optimization -- RFO/linear search
 Second derivative matrix not updated -- first step.
 ITU=  0
     Eigenvalues ---    0.00230   0.00687   0.03758   0.03947   0.05806
     Eigenvalues ---    0.07782   0.10507   0.12668   0.16000   0.16000
     Eigenvalues ---    0.16000   0.16000   0.17129   0.23263   0.33244
     Eigenvalues ---    0.35037   0.44758   0.44892   0.45177   0.45326
     Eigenvalues ---    0.54309
 RFO step:  Lambda=-5.07693561D-02 EMin= 2.30000000D-03
 Linear search not attempted -- first point.
 Maximum step size (   0.300) exceeded in Quadratic search.
    -- Step size scaled by   0.584
 Iteration  1 RMS(Cart)=  0.07670929 RMS(Int)=  0.01450195
 Iteration  2 RMS(Cart)=  0.01922499 RMS(Int)=  0.00079992
 Iteration  3 RMS(Cart)=  0.00004011 RMS(Int)=  0.00079942
 Iteration  4 RMS(Cart)=  0.00000007 RMS(Int)=  0.00079942
 Variable       Old X    -DE/DX   Delta X   Delta X   Delta X     New X
                                 (Linear)    (Quad)   (Total)
    R1        1.92101   0.00060   0.00000   0.00071   0.00071   1.92172
    R2        1.92258   0.00094   0.00000   0.00110   0.00110   1.92368
    R3        2.78915  -0.01266   0.00000  -0.01842  -0.01842   2.77072
    R4        2.08624  -0.00394   0.00000  -0.00601  -0.00601   2.08023
    R5        2.55751  -0.02194   0.00000  -0.02158  -0.02158   2.53593
    R6        3.47710  -0.08502   0.00000  -0.27976  -0.27976   3.19734
    R7        1.91599   0.00335   0.00000   0.00388   0.00388   1.91987
    R8        1.91771   0.00309   0.00000   0.00360   0.00360   1.92130
    A1        1.92885   0.00066   0.00000   0.00123   0.00125   1.93010
    A2        1.95152  -0.00441   0.00000  -0.01252  -0.01251   1.93901
    A3        1.89400   0.00252   0.00000   0.00665   0.00666   1.90066
    A4        1.87616   0.01432   0.00000   0.04137   0.04059   1.91675
    A5        1.75387   0.00995   0.00000   0.02063   0.01982   1.77369
    A6        1.88992  -0.02038   0.00000  -0.04595  -0.04607   1.84385
    A7        1.97384   0.00407   0.00000   0.02651   0.02554   1.99938
    A8        1.98688  -0.00378   0.00000  -0.02361  -0.02319   1.96370
    A9        1.96402  -0.00298   0.00000  -0.01416  -0.01404   1.94998
   A10        1.89562  -0.01517   0.00000  -0.05169  -0.05299   1.84263
   A11        1.94456  -0.01359   0.00000  -0.04683  -0.04803   1.89653
   A12        1.89645   0.00729   0.00000   0.00164  -0.00128   1.89516
    D1        1.04607   0.00774   0.00000   0.03003   0.03078   1.07684
    D2       -1.02151  -0.00683   0.00000  -0.02480  -0.02535  -1.04685
    D3       -3.08338  -0.00032   0.00000  -0.00092  -0.00111  -3.08449
    D4       -3.10518   0.00743   0.00000   0.02802   0.02876  -3.07642
    D5        1.11043  -0.00714   0.00000  -0.02681  -0.02736   1.08307
    D6       -0.95144  -0.00063   0.00000  -0.00293  -0.00312  -0.95457
    D7        2.55049   0.00359   0.00000   0.02465   0.02370   2.57419
    D8       -1.64442  -0.00546   0.00000  -0.03516  -0.03443  -1.67885
    D9       -1.64731   0.00512   0.00000   0.03008   0.02955  -1.61777
   D10        0.44096  -0.00393   0.00000  -0.02973  -0.02858   0.41238
   D11        0.62784   0.00469   0.00000   0.03303   0.03199   0.65983
   D12        2.71611  -0.00436   0.00000  -0.02678  -0.02614   2.68998
         Item               Value     Threshold  Converged?
 Maximum Force            0.085016     0.000450     NO 
 RMS     Force            0.017230     0.000300     NO 
 Maximum Displacement     0.254348     0.001800     NO 
 RMS     Displacement     0.094972     0.001200     NO 
 Predicted change in Energy=-2.347040D-02
 GradGradGradGradGradGradGradGradGradGradGradGradGradGradGradGradGradGrad

                          Input orientation:                          
 ---------------------------------------------------------------------
 Center     Atomic      Atomic             Coordinates (Angstroms)
 Number     Number       Type             X           Y           Z
 ---------------------------------------------------------------------
      1          7           0       -1.114564   -0.806605   -0.009732
      2          1           0       -2.031596   -0.532627    0.333971
      3          1           0       -1.106523   -0.831642   -1.027361
      4          6           0       -0.078872    0.123526    0.450649
      5          1           0       -0.029085    0.112228    1.550278
      6          8           0       -0.502613    1.282558   -0.076551
      7          7           0        1.359412   -0.402843   -0.268376
      8          1           0        1.906326    0.437639   -0.431551
      9          1           0        1.858407   -0.990547    0.394425
 ---------------------------------------------------------------------
                    Distance matrix (angstroms):
                    1          2          3          4          5
     1  N    0.000000
     2  H    1.016929   0.000000
     3  H    1.017968   1.672841   0.000000
     4  C    1.466204   2.063319   2.037873   0.000000
     5  H    2.110960   2.430080   2.948895   1.100813   0.000000
     6  O    2.177970   2.408571   2.395534   1.341958   2.059241
     7  N    2.520016   3.446535   2.615484   1.691958   2.345362
     8  H    3.294216   4.127308   3.323149   2.194984   2.789149
     9  H    3.005950   3.917330   3.292041   2.235480   2.472799
                    6          7          8          9
     6  O    0.000000
     7  N    2.518831   0.000000
     8  H    2.577382   1.015949   0.000000
     9  H    3.311078   1.016709   1.650530   0.000000
 Stoichiometry    CH5N2O(2)
 Framework group  C1[X(CH5N2O)]
 Deg. of freedom    21
 Full point group                 C1      NOp   1
 Largest Abelian subgroup         C1      NOp   1
 Largest concise Abelian subgroup C1      NOp   1
                         Standard orientation:                         
 ---------------------------------------------------------------------
 Center     Atomic      Atomic             Coordinates (Angstroms)
 Number     Number       Type             X           Y           Z
 ---------------------------------------------------------------------
      1          7           0       -0.941894   -0.945587   -0.078889
      2          1           0       -1.905122   -0.771608    0.196911
      3          1           0       -0.863091   -0.994462   -1.092625
      4          6           0       -0.052352    0.109526    0.416295
      5          1           0       -0.075160    0.131048    1.516661
      6          8           0       -0.569597    1.198234   -0.173640
      7          7           0        1.481452   -0.263732   -0.192674
      8          1           0        1.938410    0.630319   -0.347639
      9          1           0        1.998945   -0.773087    0.518983
 ---------------------------------------------------------------------
 Rotational constants (GHZ):     10.9635754      7.4468713      5.0650410
 Standard basis: 6-31G(d,p) (6D, 7F)
 There are    85 symmetry adapted cartesian basis functions of A   symmetry.
 There are    85 symmetry adapted basis functions of A   symmetry.
    85 basis functions,   147 primitive gaussians,    85 cartesian basis functions
    17 alpha electrons       16 beta electrons
       nuclear repulsion energy       125.0067606580 Hartrees.
 NAtoms=    9 NActive=    9 NUniq=    9 SFac= 1.00D+00 NAtFMM=   60 NAOKFM=F Big=F
 Integral buffers will be    131072 words long.
 Raffenetti 2 integral format.
 Two-electron integral symmetry is turned on.
 One-electron integrals computed using PRISM.
 NBasis=    85 RedAO= T EigKep=  3.65D-03  NBF=    85
 NBsUse=    85 1.00D-06 EigRej= -1.00D+00 NBFU=    85
 Initial guess from the checkpoint file:  "/oasis/scratch/comet/scigap/temp_project/seagrid-workdirs/PROCESS_d1d7ca21-0d6f-4875-b2ab-ec9c74079774/Gau-26978.chk"
 B after Tr=     0.000000    0.000000    0.000000
         Rot=    0.999894    0.000807   -0.006232    0.013130 Ang=   1.67 deg.
 Initial guess <Sx>= 0.0000 <Sy>= 0.0000 <Sz>= 0.5000 <S**2>= 0.7556 S= 0.5028
 ExpMin= 1.61D-01 ExpMax= 5.48D+03 ExpMxC= 8.25D+02 IAcc=1 IRadAn=         1 AccDes= 0.00D+00
 Harris functional with IExCor=  402 and IRadAn=       1 diagonalized for initial guess.
 HarFok:  IExCor=  402 AccDes= 0.00D+00 IRadAn=         1 IDoV= 1 UseB2=F ITyADJ=14
 ICtDFT=  3500011 ScaDFX=  1.000000  1.000000  1.000000  1.000000
 FoFCou: FMM=F IPFlag=           0 FMFlag=      100000 FMFlg1=           0
         NFxFlg=           0 DoJE=T BraDBF=F KetDBF=T FulRan=T
         wScrn=  0.000000 ICntrl=     500 IOpCl=  0 I1Cent=   200000004 NGrid=           0
         NMat0=    1 NMatS0=      1 NMatT0=    0 NMatD0=    1 NMtDS0=    0 NMtDT0=    0
 Petite list used in FoFCou.
 Keep R1 and R2 ints in memory in canonical form, NReq=14312049.
 Requested convergence on RMS density matrix=1.00D-08 within 128 cycles.
 Requested convergence on MAX density matrix=1.00D-06.
 Requested convergence on             energy=1.00D-06.
 No special actions if energy rises.
 Integral accuracy reduced to 1.0D-05 until final iterations.
 Initial convergence to 1.0D-05 achieved.  Increase integral accuracy.
 SCF Done:  E(UB3LYP) =  -225.756223897     A.U. after   18 cycles
            NFock= 18  Conv=0.13D-08     -V/T= 2.0098
 <Sx>= 0.0000 <Sy>= 0.0000 <Sz>= 0.5000 <S**2>= 0.7554 S= 0.5027
 <L.S>= 0.000000000000E+00
 Annihilation of the first spin contaminant:
 S**2 before annihilation     0.7554,   after     0.7500
 Calling FoFJK, ICntrl=      2127 FMM=F ISym2X=0 I1Cent= 0 IOpClX= 1 NMat=1 NMatS=1 NMatT=0.
 ***** Axes restored to original set *****
 -------------------------------------------------------------------
 Center     Atomic                   Forces (Hartrees/Bohr)
 Number     Number              X              Y              Z
 -------------------------------------------------------------------
      1        7           0.006522001    0.000428133    0.000467826
      2        1          -0.001184235    0.000617909   -0.000099611
      3        1           0.000598082   -0.000072893   -0.000026795
      4        6           0.047580719   -0.013323850   -0.027644642
      5        1           0.004220589   -0.002254950   -0.001062179
      6        8           0.003440852   -0.004402839    0.000791457
      7        7          -0.061817385    0.013941583    0.019289235
      8        1           0.000199049    0.003195303    0.003868556
      9        1           0.000440330    0.001871603    0.004416153
 -------------------------------------------------------------------
 Cartesian Forces:  Max     0.061817385 RMS     0.016934400

 GradGradGradGradGradGradGradGradGradGradGradGradGradGradGradGradGradGrad
 Berny optimization.
 Using GEDIIS/GDIIS optimizer.
 FormGI is forming the generalized inverse of G from B-inverse, IUseBI=4.
 Internal  Forces:  Max     0.069636533 RMS     0.012591026
 Search for a local minimum.
 Step number   2 out of a maximum of   42
 All quantities printed in internal units (Hartrees-Bohrs-Radians)
 Mixed Optimization -- RFO/linear search
 Update second derivatives using D2CorX and points    1    2
 DE= -2.61D-02 DEPred=-2.35D-02 R= 1.11D+00
 TightC=F SS=  1.41D+00  RLast= 3.14D-01 DXNew= 5.0454D-01 9.4070D-01
 Trust test= 1.11D+00 RLast= 3.14D-01 DXMaxT set to 5.05D-01
 ITU=  1  0
 Use linear search instead of GDIIS.
     Eigenvalues ---    0.00230   0.00686   0.03984   0.04569   0.05260
     Eigenvalues ---    0.06117   0.08320   0.11321   0.15992   0.16000
     Eigenvalues ---    0.16000   0.16673   0.17670   0.26611   0.33342
     Eigenvalues ---    0.35644   0.44766   0.44897   0.45172   0.45322
     Eigenvalues ---    0.57210
 RFO step:  Lambda=-1.25486040D-02 EMin= 2.30005462D-03
 Quartic linear search produced a step of  1.18995.
 Iteration  1 RMS(Cart)=  0.04909673 RMS(Int)=  0.07551463
 Iteration  2 RMS(Cart)=  0.04735760 RMS(Int)=  0.04019655
 Iteration  3 RMS(Cart)=  0.04710061 RMS(Int)=  0.00496502
 Iteration  4 RMS(Cart)=  0.00637346 RMS(Int)=  0.00097250
 Iteration  5 RMS(Cart)=  0.00000499 RMS(Int)=  0.00097250
 Iteration  6 RMS(Cart)=  0.00000001 RMS(Int)=  0.00097250
 Variable       Old X    -DE/DX   Delta X   Delta X   Delta X     New X
                                 (Linear)    (Quad)   (Total)
    R1        1.92172   0.00120   0.00084   0.00428   0.00512   1.92683
    R2        1.92368   0.00003   0.00131  -0.00176  -0.00044   1.92324
    R3        2.77072  -0.00492  -0.02192   0.00540  -0.01652   2.75420
    R4        2.08023  -0.00085  -0.00715   0.00609  -0.00107   2.07917
    R5        2.53593  -0.00520  -0.02568   0.01599  -0.00969   2.52625
    R6        3.19734  -0.06964  -0.33290  -0.29405  -0.62695   2.57038
    R7        1.91987   0.00213   0.00461   0.00296   0.00758   1.92744
    R8        1.92130   0.00201   0.00428   0.00295   0.00723   1.92853
    A1        1.93010   0.00015   0.00149  -0.00081   0.00077   1.93086
    A2        1.93901   0.00017  -0.01489   0.03290   0.01806   1.95707
    A3        1.90066  -0.00069   0.00793  -0.02456  -0.01658   1.88407
    A4        1.91675   0.00318   0.04830  -0.06945  -0.02209   1.89466
    A5        1.77369   0.00268   0.02358  -0.01260   0.00985   1.78354
    A6        1.84385  -0.00488  -0.05482   0.06020   0.00513   1.84899
    A7        1.99938   0.00147   0.03039  -0.04715  -0.01797   1.98141
    A8        1.96370  -0.00189  -0.02759   0.03341   0.00634   1.97004
    A9        1.94998  -0.00049  -0.01671   0.03549   0.01878   1.96877
   A10        1.84263  -0.00570  -0.06305   0.06180  -0.00283   1.83981
   A11        1.89653  -0.00520  -0.05716   0.05519  -0.00343   1.89309
   A12        1.89516   0.00081  -0.00153   0.02443   0.01938   1.91454
    D1        1.07684   0.00308   0.03662  -0.01663   0.02093   1.09778
    D2       -1.04685  -0.00157  -0.03016   0.07724   0.04644  -1.00041
    D3       -3.08449  -0.00033  -0.00132   0.02098   0.01942  -3.06507
    D4       -3.07642   0.00292   0.03422  -0.01285   0.02226  -3.05416
    D5        1.08307  -0.00173  -0.03256   0.08101   0.04777   1.13084
    D6       -0.95457  -0.00050  -0.00372   0.02475   0.02075  -0.93382
    D7        2.57419   0.00247   0.02820  -0.01223   0.01489   2.58908
    D8       -1.67885  -0.00201  -0.04097   0.07426   0.03424  -1.64460
    D9       -1.61777   0.00217   0.03516  -0.03975  -0.00524  -1.62301
   D10        0.41238  -0.00231  -0.03401   0.04675   0.01412   0.42650
   D11        0.65983   0.00212   0.03806  -0.04471  -0.00796   0.65187
   D12        2.68998  -0.00237  -0.03110   0.04179   0.01140   2.70137
         Item               Value     Threshold  Converged?
 Maximum Force            0.069637     0.000450     NO 
 RMS     Force            0.012591     0.000300     NO 
 Maximum Displacement     0.387417     0.001800     NO 
 RMS     Displacement     0.147828     0.001200     NO 
 Predicted change in Energy=-3.316675D-02
 GradGradGradGradGradGradGradGradGradGradGradGradGradGradGradGradGradGrad

                          Input orientation:                          
 ---------------------------------------------------------------------
 Center     Atomic      Atomic             Coordinates (Angstroms)
 Number     Number       Type             X           Y           Z
 ---------------------------------------------------------------------
      1          7           0       -1.033116   -0.814681   -0.015312
      2          1           0       -1.945059   -0.521776    0.334291
      3          1           0       -1.034969   -0.854936   -1.032248
      4          6           0        0.030192    0.093131    0.396327
      5          1           0        0.100569    0.075011    1.494172
      6          8           0       -0.392997    1.263408   -0.092019
      7          7           0        1.160577   -0.354705   -0.213415
      8          1           0        1.722301    0.478403   -0.388662
      9          1           0        1.653395   -0.972166    0.432619
 ---------------------------------------------------------------------
                    Distance matrix (angstroms):
                    1          2          3          4          5
     1  N    0.000000
     2  H    1.019636   0.000000
     3  H    1.017734   1.675318   0.000000
     4  C    1.457461   2.069680   2.018470   0.000000
     5  H    2.086944   2.426123   2.921822   1.100248   0.000000
     6  O    2.175797   2.403647   2.404899   1.336832   2.042522
     7  N    2.250136   3.157986   2.396068   1.360189   2.055269
     8  H    3.066558   3.869438   3.129622   1.904698   2.517500
     9  H    2.728146   3.627863   3.063801   1.941897   2.152846
                    6          7          8          9
     6  O    0.000000
     7  N    2.246468   0.000000
     8  H    2.275679   1.019958   0.000000
     9  H    3.075834   1.020532   1.668352   0.000000
 Stoichiometry    CH5N2O(2)
 Framework group  C1[X(CH5N2O)]
 Deg. of freedom    21
 Full point group                 C1      NOp   1
 Largest Abelian subgroup         C1      NOp   1
 Largest concise Abelian subgroup C1      NOp   1
                         Standard orientation:                         
 ---------------------------------------------------------------------
 Center     Atomic      Atomic             Coordinates (Angstroms)
 Number     Number       Type             X           Y           Z
 ---------------------------------------------------------------------
      1          7           0       -1.005099   -0.810400   -0.061438
      2          1           0       -1.917867   -0.491702    0.262511
      3          1           0       -0.982013   -0.858445   -1.077775
      4          6           0        0.070264    0.073224    0.370994
      5          1           0        0.112094    0.061797    1.470388
      6          8           0       -0.310188    1.250081   -0.136335
      7          7           0        1.204005   -0.407914   -0.206285
      8          1           0        1.791185    0.409258   -0.372907
      9          1           0        1.664179   -1.032704    0.456560
 ---------------------------------------------------------------------
 Rotational constants (GHZ):     11.2232765      9.5026694      5.9086040
 Standard basis: 6-31G(d,p) (6D, 7F)
 There are    85 symmetry adapted cartesian basis functions of A   symmetry.
 There are    85 symmetry adapted basis functions of A   symmetry.
    85 basis functions,   147 primitive gaussians,    85 cartesian basis functions
    17 alpha electrons       16 beta electrons
       nuclear repulsion energy       132.5591208425 Hartrees.
 NAtoms=    9 NActive=    9 NUniq=    9 SFac= 1.00D+00 NAtFMM=   60 NAOKFM=F Big=F
 Integral buffers will be    131072 words long.
 Raffenetti 2 integral format.
 Two-electron integral symmetry is turned on.
 One-electron integrals computed using PRISM.
 NBasis=    85 RedAO= T EigKep=  2.22D-03  NBF=    85
 NBsUse=    85 1.00D-06 EigRej= -1.00D+00 NBFU=    85
 Initial guess from the checkpoint file:  "/oasis/scratch/comet/scigap/temp_project/seagrid-workdirs/PROCESS_d1d7ca21-0d6f-4875-b2ab-ec9c74079774/Gau-26978.chk"
 B after Tr=     0.000000    0.000000    0.000000
         Rot=    0.996889   -0.009508   -0.018245    0.076084 Ang=  -9.04 deg.
 Initial guess <Sx>= 0.0000 <Sy>= 0.0000 <Sz>= 0.5000 <S**2>= 0.7553 S= 0.5026
 ExpMin= 1.61D-01 ExpMax= 5.48D+03 ExpMxC= 8.25D+02 IAcc=1 IRadAn=         1 AccDes= 0.00D+00
 Harris functional with IExCor=  402 and IRadAn=       1 diagonalized for initial guess.
 HarFok:  IExCor=  402 AccDes= 0.00D+00 IRadAn=         1 IDoV= 1 UseB2=F ITyADJ=14
 ICtDFT=  3500011 ScaDFX=  1.000000  1.000000  1.000000  1.000000
 FoFCou: FMM=F IPFlag=           0 FMFlag=      100000 FMFlg1=           0
         NFxFlg=           0 DoJE=T BraDBF=F KetDBF=T FulRan=T
         wScrn=  0.000000 ICntrl=     500 IOpCl=  0 I1Cent=   200000004 NGrid=           0
         NMat0=    1 NMatS0=      1 NMatT0=    0 NMatD0=    1 NMtDS0=    0 NMtDT0=    0
 Petite list used in FoFCou.
 Keep R1 and R2 ints in memory in canonical form, NReq=14312049.
 Requested convergence on RMS density matrix=1.00D-08 within 128 cycles.
 Requested convergence on MAX density matrix=1.00D-06.
 Requested convergence on             energy=1.00D-06.
 No special actions if energy rises.
 Integral accuracy reduced to 1.0D-05 until final iterations.
 Initial convergence to 1.0D-05 achieved.  Increase integral accuracy.
 SCF Done:  E(UB3LYP) =  -225.765955085     A.U. after   23 cycles
            NFock= 23  Conv=0.69D-08     -V/T= 2.0073
 <Sx>= 0.0000 <Sy>= 0.0000 <Sz>= 0.5000 <S**2>= 0.7551 S= 0.5025
 <L.S>= 0.000000000000E+00
 Annihilation of the first spin contaminant:
 S**2 before annihilation     0.7551,   after     0.7500
 Calling FoFJK, ICntrl=      2127 FMM=F ISym2X=0 I1Cent= 0 IOpClX= 1 NMat=1 NMatS=1 NMatT=0.
 ***** Axes restored to original set *****
 -------------------------------------------------------------------
 Center     Atomic                   Forces (Hartrees/Bohr)
 Number     Number              X              Y              Z
 -------------------------------------------------------------------
      1        7          -0.020451386   -0.003321177    0.003703141
      2        1          -0.000700364   -0.001106625   -0.000823718
      3        1          -0.000452659    0.000423915   -0.000894166
      4        6          -0.040804524    0.004798769    0.028801858
      5        1          -0.006345226    0.001210157    0.008269808
      6        8          -0.012002256    0.017920840   -0.006789257
      7        7           0.068582908   -0.013481331   -0.023448508
      8        1           0.006720175   -0.007397986   -0.001613431
      9        1           0.005453331    0.000953437   -0.007205727
 -------------------------------------------------------------------
 Cartesian Forces:  Max     0.068582908 RMS     0.018465026

 GradGradGradGradGradGradGradGradGradGradGradGradGradGradGradGradGradGrad
 Berny optimization.
 Using GEDIIS/GDIIS optimizer.
 FormGI is forming the generalized inverse of G from B-inverse, IUseBI=4.
 Internal  Forces:  Max     0.088143145 RMS     0.017482611
 Search for a local minimum.
 Step number   3 out of a maximum of   42
 All quantities printed in internal units (Hartrees-Bohrs-Radians)
 Mixed Optimization -- RFO/linear search
 Update second derivatives using D2CorX and points    2    3
 DE= -9.73D-03 DEPred=-3.32D-02 R= 2.93D-01
 Trust test= 2.93D-01 RLast= 6.36D-01 DXMaxT set to 5.05D-01
 ITU=  0  1  0
 Use linear search instead of GDIIS.
     Eigenvalues ---    0.00230   0.00691   0.03967   0.04507   0.06109
     Eigenvalues ---    0.08049   0.11070   0.15943   0.16000   0.16000
     Eigenvalues ---    0.16602   0.16886   0.21736   0.30233   0.33520
     Eigenvalues ---    0.37989   0.44767   0.44892   0.45187   0.45330
     Eigenvalues ---    0.59269
 RFO step:  Lambda=-3.92304558D-03 EMin= 2.29979755D-03
 Quartic linear search produced a step of -0.33625.
 Iteration  1 RMS(Cart)=  0.09179473 RMS(Int)=  0.00459634
 Iteration  2 RMS(Cart)=  0.00459779 RMS(Int)=  0.00019872
 Iteration  3 RMS(Cart)=  0.00001582 RMS(Int)=  0.00019835
 Iteration  4 RMS(Cart)=  0.00000001 RMS(Int)=  0.00019835
 Variable       Old X    -DE/DX   Delta X   Delta X   Delta X     New X
                                 (Linear)    (Quad)   (Total)
    R1        1.92683   0.00003  -0.00172   0.00121  -0.00051   1.92632
    R2        1.92324   0.00088   0.00015   0.00178   0.00193   1.92517
    R3        2.75420   0.01769   0.00556   0.02012   0.02567   2.77987
    R4        2.07917   0.00783   0.00036   0.01197   0.01233   2.09150
    R5        2.52625   0.02197   0.00326   0.01440   0.01766   2.54390
    R6        2.57038   0.08814   0.21081  -0.02520   0.18561   2.75600
    R7        1.92744  -0.00206  -0.00255   0.00019  -0.00236   1.92508
    R8        1.92853  -0.00251  -0.00243  -0.00067  -0.00309   1.92543
    A1        1.93086  -0.00099  -0.00026  -0.00264  -0.00292   1.92794
    A2        1.95707   0.00245  -0.00607   0.00898   0.00289   1.95996
    A3        1.88407  -0.00044   0.00558  -0.00362   0.00194   1.88601
    A4        1.89466  -0.00989   0.00743  -0.02535  -0.01806   1.87659
    A5        1.78354  -0.00956  -0.00331  -0.00992  -0.01336   1.77018
    A6        1.84899   0.01944  -0.00173   0.03526   0.03354   1.88253
    A7        1.98141  -0.00006   0.00604  -0.01159  -0.00573   1.97568
    A8        1.97004   0.00001  -0.00213   0.00293   0.00091   1.97095
    A9        1.96877   0.00011  -0.00632   0.00911   0.00289   1.97165
   A10        1.83981   0.01451   0.00095   0.03311   0.03370   1.87350
   A11        1.89309   0.01297   0.00115   0.02932   0.03014   1.92323
   A12        1.91454  -0.00910  -0.00652  -0.01353  -0.02079   1.89375
    D1        1.09778  -0.00520  -0.00704   0.13059   0.12371   1.22149
    D2       -1.00041   0.00420  -0.01562   0.16026   0.14449  -0.85592
    D3       -3.06507   0.00052  -0.00653   0.14041   0.13386  -2.93121
    D4       -3.05416  -0.00517  -0.00749   0.13054   0.12322  -2.93093
    D5        1.13084   0.00422  -0.01606   0.16020   0.14400   1.27484
    D6       -0.93382   0.00055  -0.00698   0.14036   0.13337  -0.80045
    D7        2.58908  -0.00142  -0.00501   0.13278   0.12755   2.71662
    D8       -1.64460   0.00184  -0.01151   0.14847   0.13714  -1.50747
    D9       -1.62301  -0.00109   0.00176   0.12596   0.12758  -1.49542
   D10        0.42650   0.00217  -0.00475   0.14165   0.13717   0.56367
   D11        0.65187  -0.00106   0.00268   0.12050   0.12293   0.77480
   D12        2.70137   0.00220  -0.00383   0.13619   0.13252   2.83389
         Item               Value     Threshold  Converged?
 Maximum Force            0.088143     0.000450     NO 
 RMS     Force            0.017483     0.000300     NO 
 Maximum Displacement     0.215439     0.001800     NO 
 RMS     Displacement     0.091972     0.001200     NO 
 Predicted change in Energy=-1.265938D-02
 GradGradGradGradGradGradGradGradGradGradGradGradGradGradGradGradGradGrad

                          Input orientation:                          
 ---------------------------------------------------------------------
 Center     Atomic      Atomic             Coordinates (Angstroms)
 Number     Number       Type             X           Y           Z
 ---------------------------------------------------------------------
      1          7           0       -1.076873   -0.812087    0.023522
      2          1           0       -1.999011   -0.462977    0.282150
      3          1           0       -1.021073   -0.958949   -0.983046
      4          6           0       -0.001026    0.113897    0.409634
      5          1           0        0.072648    0.097207    1.513826
      6          8           0       -0.467506    1.280744   -0.073120
      7          7           0        1.224381   -0.324925   -0.248221
      8          1           0        1.834060    0.487328   -0.327606
      9          1           0        1.695292   -1.028551    0.318613
 ---------------------------------------------------------------------
                    Distance matrix (angstroms):
                    1          2          3          4          5
     1  N    0.000000
     2  H    1.019365   0.000000
     3  H    1.018754   1.674238   0.000000
     4  C    1.471045   2.083501   2.032498   0.000000
     5  H    2.090268   2.474389   2.923365   1.106774   0.000000
     6  O    2.181882   2.347826   2.480046   1.346175   2.052054
     7  N    2.367898   3.269650   2.446225   1.458410   2.146974
     8  H    3.207071   3.995913   3.266972   2.012590   2.577915
     9  H    2.796219   3.737523   3.012939   2.047185   2.308428
                    6          7          8          9
     6  O    0.000000
     7  N    2.339084   0.000000
     8  H    2.447749   1.018709   0.000000
     9  H    3.188101   1.018895   1.653707   0.000000
 Stoichiometry    CH5N2O(2)
 Framework group  C1[X(CH5N2O)]
 Deg. of freedom    21
 Full point group                 C1      NOp   1
 Largest Abelian subgroup         C1      NOp   1
 Largest concise Abelian subgroup C1      NOp   1
                         Standard orientation:                         
 ---------------------------------------------------------------------
 Center     Atomic      Atomic             Coordinates (Angstroms)
 Number     Number       Type             X           Y           Z
 ---------------------------------------------------------------------
      1          7           0       -0.982420   -0.878931   -0.045679
      2          1           0       -1.928296   -0.555300    0.153536
      3          1           0       -0.865892   -1.045692   -1.043913
      4          6           0        0.039879    0.090671    0.377111
      5          1           0        0.052374    0.100460    1.483771
      6          8           0       -0.436257    1.230504   -0.157925
      7          7           0        1.313540   -0.321141   -0.201819
      8          1           0        1.900250    0.509121   -0.266657
      9          1           0        1.774508   -0.996144    0.406479
 ---------------------------------------------------------------------
 Rotational constants (GHZ):     11.1415849      8.6528913      5.5370094
 Standard basis: 6-31G(d,p) (6D, 7F)
 There are    85 symmetry adapted cartesian basis functions of A   symmetry.
 There are    85 symmetry adapted basis functions of A   symmetry.
    85 basis functions,   147 primitive gaussians,    85 cartesian basis functions
    17 alpha electrons       16 beta electrons
       nuclear repulsion energy       129.3751550314 Hartrees.
 NAtoms=    9 NActive=    9 NUniq=    9 SFac= 1.00D+00 NAtFMM=   60 NAOKFM=F Big=F
 Integral buffers will be    131072 words long.
 Raffenetti 2 integral format.
 Two-electron integral symmetry is turned on.
 One-electron integrals computed using PRISM.
 NBasis=    85 RedAO= T EigKep=  2.85D-03  NBF=    85
 NBsUse=    85 1.00D-06 EigRej= -1.00D+00 NBFU=    85
 Initial guess from the checkpoint file:  "/oasis/scratch/comet/scigap/temp_project/seagrid-workdirs/PROCESS_d1d7ca21-0d6f-4875-b2ab-ec9c74079774/Gau-26978.chk"
 B after Tr=     0.000000    0.000000    0.000000
         Rot=    0.999274    0.007419    0.008147   -0.036470 Ang=   4.37 deg.
 Initial guess <Sx>= 0.0000 <Sy>= 0.0000 <Sz>= 0.5000 <S**2>= 0.7551 S= 0.5026
 ExpMin= 1.61D-01 ExpMax= 5.48D+03 ExpMxC= 8.25D+02 IAcc=1 IRadAn=         1 AccDes= 0.00D+00
 Harris functional with IExCor=  402 and IRadAn=       1 diagonalized for initial guess.
 HarFok:  IExCor=  402 AccDes= 0.00D+00 IRadAn=         1 IDoV= 1 UseB2=F ITyADJ=14
 ICtDFT=  3500011 ScaDFX=  1.000000  1.000000  1.000000  1.000000
 FoFCou: FMM=F IPFlag=           0 FMFlag=      100000 FMFlg1=           0
         NFxFlg=           0 DoJE=T BraDBF=F KetDBF=T FulRan=T
         wScrn=  0.000000 ICntrl=     500 IOpCl=  0 I1Cent=   200000004 NGrid=           0
         NMat0=    1 NMatS0=      1 NMatT0=    0 NMatD0=    1 NMtDS0=    0 NMtDT0=    0
 Petite list used in FoFCou.
 Keep R1 and R2 ints in memory in canonical form, NReq=14312049.
 Requested convergence on RMS density matrix=1.00D-08 within 128 cycles.
 Requested convergence on MAX density matrix=1.00D-06.
 Requested convergence on             energy=1.00D-06.
 No special actions if energy rises.
 Integral accuracy reduced to 1.0D-05 until final iterations.
 Initial convergence to 1.0D-05 achieved.  Increase integral accuracy.
 SCF Done:  E(UB3LYP) =  -225.774554969     A.U. after   22 cycles
            NFock= 22  Conv=0.59D-08     -V/T= 2.0087
 <Sx>= 0.0000 <Sy>= 0.0000 <Sz>= 0.5000 <S**2>= 0.7552 S= 0.5026
 <L.S>= 0.000000000000E+00
 Annihilation of the first spin contaminant:
 S**2 before annihilation     0.7552,   after     0.7500
 Calling FoFJK, ICntrl=      2127 FMM=F ISym2X=0 I1Cent= 0 IOpClX= 1 NMat=1 NMatS=1 NMatT=0.
 ***** Axes restored to original set *****
 -------------------------------------------------------------------
 Center     Atomic                   Forces (Hartrees/Bohr)
 Number     Number              X              Y              Z
 -------------------------------------------------------------------
      1        7          -0.001042943   -0.003315331   -0.003431709
      2        1           0.001930815    0.000070872    0.001076614
      3        1          -0.001104169    0.001972815   -0.000560417
      4        6           0.004543101   -0.004776481    0.007233029
      5        1          -0.000740492    0.001145375    0.000902271
      6        8          -0.002418772    0.004878791   -0.004472190
      7        7          -0.001708397    0.001119902   -0.000228407
      8        1           0.000015877   -0.002748929   -0.000026501
      9        1           0.000524981    0.001652987   -0.000492689
 -------------------------------------------------------------------
 Cartesian Forces:  Max     0.007233029 RMS     0.002703260

 GradGradGradGradGradGradGradGradGradGradGradGradGradGradGradGradGradGrad
 Berny optimization.
 Using GEDIIS/GDIIS optimizer.
 FormGI is forming the generalized inverse of G from B-inverse, IUseBI=4.
 Internal  Forces:  Max     0.006671218 RMS     0.001749589
 Search for a local minimum.
 Step number   4 out of a maximum of   42
 All quantities printed in internal units (Hartrees-Bohrs-Radians)
 Mixed Optimization -- RFO/linear search
 Update second derivatives using D2CorX and points    3    4
 DE= -8.60D-03 DEPred=-1.27D-02 R= 6.79D-01
 TightC=F SS=  1.41D+00  RLast= 5.00D-01 DXNew= 8.4853D-01 1.5012D+00
 Trust test= 6.79D-01 RLast= 5.00D-01 DXMaxT set to 8.49D-01
 ITU=  1  0  1  0
 Use linear search instead of GDIIS.
     Eigenvalues ---    0.00230   0.00679   0.03945   0.04189   0.05971
     Eigenvalues ---    0.07800   0.11323   0.15895   0.15995   0.16000
     Eigenvalues ---    0.16818   0.17213   0.24017   0.32962   0.34309
     Eigenvalues ---    0.44672   0.44764   0.45155   0.45252   0.47573
     Eigenvalues ---    0.56492
 RFO step:  Lambda=-1.51294613D-03 EMin= 2.29674075D-03
 Quartic linear search produced a step of -0.05722.
 Iteration  1 RMS(Cart)=  0.06508812 RMS(Int)=  0.00369975
 Iteration  2 RMS(Cart)=  0.00367665 RMS(Int)=  0.00009399
 Iteration  3 RMS(Cart)=  0.00000848 RMS(Int)=  0.00009374
 Iteration  4 RMS(Cart)=  0.00000000 RMS(Int)=  0.00009374
 Variable       Old X    -DE/DX   Delta X   Delta X   Delta X     New X
                                 (Linear)    (Quad)   (Total)
    R1        1.92632  -0.00145   0.00003  -0.00310  -0.00307   1.92325
    R2        1.92517   0.00021  -0.00011   0.00047   0.00036   1.92553
    R3        2.77987   0.00173  -0.00147   0.00637   0.00490   2.78477
    R4        2.09150   0.00083  -0.00071   0.00310   0.00240   2.09389
    R5        2.54390   0.00667  -0.00101   0.01328   0.01227   2.55617
    R6        2.75600  -0.00065  -0.01062   0.01227   0.00165   2.75764
    R7        1.92508  -0.00218   0.00014  -0.00479  -0.00466   1.92042
    R8        1.92543  -0.00117   0.00018  -0.00271  -0.00253   1.92290
    A1        1.92794   0.00053   0.00017  -0.00630  -0.00639   1.92155
    A2        1.95996  -0.00220  -0.00017  -0.01719  -0.01748   1.94248
    A3        1.88601  -0.00042  -0.00011  -0.00776  -0.00801   1.87801
    A4        1.87659   0.00162   0.00103   0.01112   0.01221   1.88880
    A5        1.77018  -0.00085   0.00076  -0.01560  -0.01500   1.75518
    A6        1.88253  -0.00248  -0.00192  -0.01133  -0.01334   1.86919
    A7        1.97568   0.00027   0.00033   0.00587   0.00626   1.98194
    A8        1.97095   0.00123  -0.00005   0.01376   0.01372   1.98467
    A9        1.97165  -0.00011  -0.00017  -0.00712  -0.00751   1.96414
   A10        1.87350   0.00228  -0.00193   0.01493   0.01302   1.88652
   A11        1.92323   0.00047  -0.00172   0.00401   0.00230   1.92553
   A12        1.89375  -0.00153   0.00119  -0.01329  -0.01207   1.88168
    D1        1.22149  -0.00063  -0.00708  -0.12280  -0.12998   1.09151
    D2       -0.85592  -0.00120  -0.00827  -0.12654  -0.13477  -0.99069
    D3       -2.93121   0.00034  -0.00766  -0.10641  -0.11423  -3.04544
    D4       -2.93093  -0.00167  -0.00705  -0.14710  -0.15410  -3.08504
    D5        1.27484  -0.00224  -0.00824  -0.15084  -0.15890   1.11594
    D6       -0.80045  -0.00070  -0.00763  -0.13070  -0.13835  -0.93880
    D7        2.71662  -0.00128  -0.00730  -0.09389  -0.10112   2.61551
    D8       -1.50747  -0.00152  -0.00785  -0.09892  -0.10672  -1.61419
    D9       -1.49542  -0.00018  -0.00730  -0.07932  -0.08662  -1.58205
   D10        0.56367  -0.00042  -0.00785  -0.08435  -0.09222   0.47145
   D11        0.77480   0.00123  -0.00703  -0.06496  -0.07203   0.70277
   D12        2.83389   0.00099  -0.00758  -0.06999  -0.07763   2.75626
         Item               Value     Threshold  Converged?
 Maximum Force            0.006671     0.000450     NO 
 RMS     Force            0.001750     0.000300     NO 
 Maximum Displacement     0.203267     0.001800     NO 
 RMS     Displacement     0.064691     0.001200     NO 
 Predicted change in Energy=-7.081859D-04
 GradGradGradGradGradGradGradGradGradGradGradGradGradGradGradGradGradGrad

                          Input orientation:                          
 ---------------------------------------------------------------------
 Center     Atomic      Atomic             Coordinates (Angstroms)
 Number     Number       Type             X           Y           Z
 ---------------------------------------------------------------------
      1          7           0       -1.070223   -0.821612   -0.005980
      2          1           0       -1.978575   -0.512294    0.333162
      3          1           0       -1.068356   -0.851385   -1.024487
      4          6           0        0.000250    0.099573    0.414874
      5          1           0        0.046209    0.094614    1.521951
      6          8           0       -0.456443    1.263168   -0.102030
      7          7           0        1.231240   -0.352009   -0.225625
      8          1           0        1.821179    0.460281   -0.383447
      9          1           0        1.735611   -0.988649    0.387333
 ---------------------------------------------------------------------
                    Distance matrix (angstroms):
                    1          2          3          4          5
     1  N    0.000000
     2  H    1.017741   0.000000
     3  H    1.018944   1.669339   0.000000
     4  C    1.473639   2.072874   2.029286   0.000000
     5  H    2.102490   2.425141   2.936242   1.108041   0.000000
     6  O    2.175376   2.378769   2.386776   1.352669   2.062885
     7  N    2.359132   3.262031   2.485095   1.459281   2.158192
     8  H    3.185269   3.987175   3.237408   2.020696   2.629596
     9  H    2.838187   3.745001   3.142341   2.048527   2.305406
                    6          7          8          9
     6  O    0.000000
     7  N    2.339304   0.000000
     8  H    2.431334   1.016244   0.000000
     9  H    3.180449   1.017555   1.643418   0.000000
 Stoichiometry    CH5N2O(2)
 Framework group  C1[X(CH5N2O)]
 Deg. of freedom    21
 Full point group                 C1      NOp   1
 Largest Abelian subgroup         C1      NOp   1
 Largest concise Abelian subgroup C1      NOp   1
                         Standard orientation:                         
 ---------------------------------------------------------------------
 Center     Atomic      Atomic             Coordinates (Angstroms)
 Number     Number       Type             X           Y           Z
 ---------------------------------------------------------------------
      1          7           0       -0.977263   -0.879016   -0.067550
      2          1           0       -1.908436   -0.602299    0.235998
      3          1           0       -0.935898   -0.911244   -1.085144
      4          6           0        0.042266    0.081769    0.389686
      5          1           0        0.046587    0.081259    1.497719
      6          8           0       -0.436741    1.226580   -0.148528
      7          7           0        1.312187   -0.326063   -0.202322
      8          1           0        1.877641    0.506873   -0.340995
      9          1           0        1.815965   -0.942289    0.431628
 ---------------------------------------------------------------------
 Rotational constants (GHZ):     11.1683965      8.6107623      5.5686261
 Standard basis: 6-31G(d,p) (6D, 7F)
 There are    85 symmetry adapted cartesian basis functions of A   symmetry.
 There are    85 symmetry adapted basis functions of A   symmetry.
    85 basis functions,   147 primitive gaussians,    85 cartesian basis functions
    17 alpha electrons       16 beta electrons
       nuclear repulsion energy       129.3396900032 Hartrees.
 NAtoms=    9 NActive=    9 NUniq=    9 SFac= 1.00D+00 NAtFMM=   60 NAOKFM=F Big=F
 Integral buffers will be    131072 words long.
 Raffenetti 2 integral format.
 Two-electron integral symmetry is turned on.
 One-electron integrals computed using PRISM.
 NBasis=    85 RedAO= T EigKep=  2.78D-03  NBF=    85
 NBsUse=    85 1.00D-06 EigRej= -1.00D+00 NBFU=    85
 Initial guess from the checkpoint file:  "/oasis/scratch/comet/scigap/temp_project/seagrid-workdirs/PROCESS_d1d7ca21-0d6f-4875-b2ab-ec9c74079774/Gau-26978.chk"
 B after Tr=     0.000000    0.000000    0.000000
         Rot=    0.999975   -0.006450   -0.002729   -0.000523 Ang=  -0.80 deg.
 Initial guess <Sx>= 0.0000 <Sy>= 0.0000 <Sz>= 0.5000 <S**2>= 0.7552 S= 0.5026
 ExpMin= 1.61D-01 ExpMax= 5.48D+03 ExpMxC= 8.25D+02 IAcc=1 IRadAn=         1 AccDes= 0.00D+00
 Harris functional with IExCor=  402 and IRadAn=       1 diagonalized for initial guess.
 HarFok:  IExCor=  402 AccDes= 0.00D+00 IRadAn=         1 IDoV= 1 UseB2=F ITyADJ=14
 ICtDFT=  3500011 ScaDFX=  1.000000  1.000000  1.000000  1.000000
 FoFCou: FMM=F IPFlag=           0 FMFlag=      100000 FMFlg1=           0
         NFxFlg=           0 DoJE=T BraDBF=F KetDBF=T FulRan=T
         wScrn=  0.000000 ICntrl=     500 IOpCl=  0 I1Cent=   200000004 NGrid=           0
         NMat0=    1 NMatS0=      1 NMatT0=    0 NMatD0=    1 NMtDS0=    0 NMtDT0=    0
 Petite list used in FoFCou.
 Keep R1 and R2 ints in memory in canonical form, NReq=14312049.
 Requested convergence on RMS density matrix=1.00D-08 within 128 cycles.
 Requested convergence on MAX density matrix=1.00D-06.
 Requested convergence on             energy=1.00D-06.
 No special actions if energy rises.
 Integral accuracy reduced to 1.0D-05 until final iterations.
 Initial convergence to 1.0D-05 achieved.  Increase integral accuracy.
 SCF Done:  E(UB3LYP) =  -225.775208206     A.U. after   21 cycles
            NFock= 21  Conv=0.28D-08     -V/T= 2.0087
 <Sx>= 0.0000 <Sy>= 0.0000 <Sz>= 0.5000 <S**2>= 0.7552 S= 0.5026
 <L.S>= 0.000000000000E+00
 Annihilation of the first spin contaminant:
 S**2 before annihilation     0.7552,   after     0.7500
 Calling FoFJK, ICntrl=      2127 FMM=F ISym2X=0 I1Cent= 0 IOpClX= 1 NMat=1 NMatS=1 NMatT=0.
 ***** Axes restored to original set *****
 -------------------------------------------------------------------
 Center     Atomic                   Forces (Hartrees/Bohr)
 Number     Number              X              Y              Z
 -------------------------------------------------------------------
      1        7          -0.000900373   -0.000157574    0.000949494
      2        1          -0.000843173    0.000056251    0.000387593
      3        1          -0.000248109   -0.000084867   -0.000082158
      4        6           0.004140885   -0.002725873   -0.002029715
      5        1          -0.000996948   -0.000121429   -0.000869391
      6        8          -0.000668988    0.001744880   -0.000225993
      7        7          -0.000773087    0.001331018    0.002255665
      8        1           0.000056075    0.000209070    0.000038997
      9        1           0.000233719   -0.000251478   -0.000424491
 -------------------------------------------------------------------
 Cartesian Forces:  Max     0.004140885 RMS     0.001283591

 GradGradGradGradGradGradGradGradGradGradGradGradGradGradGradGradGradGrad
 Berny optimization.
 Using GEDIIS/GDIIS optimizer.
 FormGI is forming the generalized inverse of G from B-inverse, IUseBI=4.
 Internal  Forces:  Max     0.003448671 RMS     0.000960640
 Search for a local minimum.
 Step number   5 out of a maximum of   42
 All quantities printed in internal units (Hartrees-Bohrs-Radians)
 Mixed Optimization -- En-DIIS/RFO-DIIS
 Update second derivatives using D2CorX and points    2    3    4    5
 DE= -6.53D-04 DEPred=-7.08D-04 R= 9.22D-01
 TightC=F SS=  1.41D+00  RLast= 4.08D-01 DXNew= 1.4270D+00 1.2255D+00
 Trust test= 9.22D-01 RLast= 4.08D-01 DXMaxT set to 1.23D+00
 ITU=  1  1  0  1  0
 Use linear search instead of GDIIS.
     Eigenvalues ---    0.00239   0.00602   0.03986   0.04186   0.05836
     Eigenvalues ---    0.08345   0.11095   0.14027   0.15988   0.16131
     Eigenvalues ---    0.16321   0.17040   0.24802   0.32589   0.33822
     Eigenvalues ---    0.44740   0.44960   0.45189   0.45361   0.46805
     Eigenvalues ---    0.52584
 RFO step:  Lambda=-1.62424575D-04 EMin= 2.38794708D-03
 Quartic linear search produced a step of -0.04990.
 Iteration  1 RMS(Cart)=  0.01750724 RMS(Int)=  0.00019506
 Iteration  2 RMS(Cart)=  0.00022094 RMS(Int)=  0.00001859
 Iteration  3 RMS(Cart)=  0.00000004 RMS(Int)=  0.00001859
 Variable       Old X    -DE/DX   Delta X   Delta X   Delta X     New X
                                 (Linear)    (Quad)   (Total)
    R1        1.92325   0.00090   0.00015   0.00127   0.00142   1.92468
    R2        1.92553   0.00008  -0.00002   0.00051   0.00050   1.92602
    R3        2.78477   0.00121  -0.00024   0.00567   0.00542   2.79020
    R4        2.09389  -0.00091  -0.00012  -0.00133  -0.00145   2.09244
    R5        2.55617   0.00181  -0.00061   0.00622   0.00560   2.56178
    R6        2.75764  -0.00163  -0.00008  -0.01007  -0.01015   2.74749
    R7        1.92042   0.00019   0.00023  -0.00058  -0.00035   1.92007
    R8        1.92290   0.00002   0.00013  -0.00056  -0.00044   1.92246
    A1        1.92155  -0.00018   0.00032  -0.00128  -0.00095   1.92060
    A2        1.94248   0.00020   0.00087  -0.00230  -0.00142   1.94106
    A3        1.87801   0.00038   0.00040   0.00173   0.00214   1.88015
    A4        1.88880  -0.00209  -0.00061  -0.01053  -0.01116   1.87764
    A5        1.75518  -0.00056   0.00075  -0.00168  -0.00097   1.75422
    A6        1.86919   0.00345   0.00067   0.01459   0.01524   1.88443
    A7        1.98194  -0.00001  -0.00031  -0.00436  -0.00470   1.97724
    A8        1.98467  -0.00032  -0.00068   0.00217   0.00152   1.98619
    A9        1.96414  -0.00033   0.00037   0.00008   0.00045   1.96459
   A10        1.88652  -0.00025  -0.00065   0.00371   0.00304   1.88957
   A11        1.92553   0.00087  -0.00012   0.00787   0.00774   1.93328
   A12        1.88168  -0.00012   0.00060  -0.00147  -0.00089   1.88079
    D1        1.09151  -0.00068   0.00649  -0.03455  -0.02803   1.06348
    D2       -0.99069   0.00044   0.00673  -0.02464  -0.01792  -1.00862
    D3       -3.04544  -0.00023   0.00570  -0.02942  -0.02374  -3.06918
    D4       -3.08504  -0.00053   0.00769  -0.03640  -0.02868  -3.11372
    D5        1.11594   0.00058   0.00793  -0.02649  -0.01857   1.09737
    D6       -0.93880  -0.00008   0.00690  -0.03126  -0.02439  -0.96319
    D7        2.61551   0.00050   0.00505   0.02529   0.03033   2.64583
    D8       -1.61419   0.00070   0.00533   0.03014   0.03547  -1.57872
    D9       -1.58205   0.00004   0.00432   0.02337   0.02770  -1.55434
   D10        0.47145   0.00023   0.00460   0.02822   0.03285   0.50429
   D11        0.70277  -0.00058   0.00359   0.01922   0.02279   0.72557
   D12        2.75626  -0.00038   0.00387   0.02407   0.02794   2.78420
         Item               Value     Threshold  Converged?
 Maximum Force            0.003449     0.000450     NO 
 RMS     Force            0.000961     0.000300     NO 
 Maximum Displacement     0.050504     0.001800     NO 
 RMS     Displacement     0.017502     0.001200     NO 
 Predicted change in Energy=-8.381845D-05
 GradGradGradGradGradGradGradGradGradGradGradGradGradGradGradGradGradGrad

                          Input orientation:                          
 ---------------------------------------------------------------------
 Center     Atomic      Atomic             Coordinates (Angstroms)
 Number     Number       Type             X           Y           Z
 ---------------------------------------------------------------------
      1          7           0       -1.071876   -0.825102   -0.006542
      2          1           0       -1.975522   -0.520842    0.351482
      3          1           0       -1.089395   -0.847540   -1.025352
      4          6           0        0.004145    0.098732    0.404291
      5          1           0        0.040286    0.099025    1.510974
      6          8           0       -0.456387    1.262217   -0.117205
      7          7           0        1.238941   -0.343636   -0.222955
      8          1           0        1.836422    0.467226   -0.356721
      9          1           0        1.734279   -0.998392    0.377780
 ---------------------------------------------------------------------
                    Distance matrix (angstroms):
                    1          2          3          4          5
     1  N    0.000000
     2  H    1.018495   0.000000
     3  H    1.019207   1.669617   0.000000
     4  C    1.476508   2.075028   2.033504   0.000000
     5  H    2.096133   2.406687   2.933447   1.107273   0.000000
     6  O    2.178985   2.388877   2.382541   1.355634   2.061714
     7  N    2.370341   3.270191   2.513744   1.453907   2.153887
     8  H    3.201708   4.001093   3.276596   2.017961   2.617243
     9  H    2.837647   3.740504   3.156687   2.048841   2.314749
                    6          7          8          9
     6  O    0.000000
     7  N    2.337538   0.000000
     8  H    2.438515   1.016058   0.000000
     9  H    3.186594   1.017324   1.642547   0.000000
 Stoichiometry    CH5N2O(2)
 Framework group  C1[X(CH5N2O)]
 Deg. of freedom    21
 Full point group                 C1      NOp   1
 Largest Abelian subgroup         C1      NOp   1
 Largest concise Abelian subgroup C1      NOp   1
                         Standard orientation:                         
 ---------------------------------------------------------------------
 Center     Atomic      Atomic             Coordinates (Angstroms)
 Number     Number       Type             X           Y           Z
 ---------------------------------------------------------------------
      1          7           0       -0.991931   -0.869999   -0.069589
[...]
 ! A3    A(3,1,4)              107.9419         -DE/DX =    0.0                 !
 ! A4    A(1,4,5)              107.36           -DE/DX =    0.0                 !
 ! A5    A(1,4,6)              100.6522         -DE/DX =    0.0                 !
 ! A6    A(1,4,7)              108.0046         -DE/DX =    0.0                 !
 ! A7    A(5,4,6)              113.0272         -DE/DX =    0.0                 !
 ! A8    A(5,4,7)              114.104          -DE/DX =    0.0                 !
 ! A9    A(6,4,7)              112.5396         -DE/DX =    0.0                 !
 ! A10   A(4,7,8)              108.3238         -DE/DX =    0.0                 !
 ! A11   A(4,7,9)              110.7407         -DE/DX =    0.0                 !
 ! A12   A(8,7,9)              108.0699         -DE/DX =    0.0                 !
 ! D1    D(2,1,4,5)             60.0933         -DE/DX =    0.0                 !
 ! D2    D(2,1,4,6)            -58.3196         -DE/DX =    0.0                 !
 ! D3    D(2,1,4,7)           -176.4355         -DE/DX =    0.0                 !
 ! D4    D(3,1,4,5)           -179.2785         -DE/DX =    0.0                 !
 ! D5    D(3,1,4,6)             62.3086         -DE/DX =    0.0                 !
 ! D6    D(3,1,4,7)            -55.8072         -DE/DX =    0.0                 !
 ! D7    D(1,4,7,8)            152.5617         -DE/DX =    0.0                 !
 ! D8    D(1,4,7,9)            -89.092          -DE/DX =    0.0                 !
 ! D9    D(5,4,7,8)            -88.1557         -DE/DX =    0.0                 !
 ! D10   D(5,4,7,9)             30.1906         -DE/DX =    0.0                 !
 ! D11   D(6,4,7,8)             42.3601         -DE/DX =    0.0                 !
 ! D12   D(6,4,7,9)            160.7064         -DE/DX =    0.0                 !
 --------------------------------------------------------------------------------
 GradGradGradGradGradGradGradGradGradGradGradGradGradGradGradGradGradGrad

                          Input orientation:                          
 ---------------------------------------------------------------------
 Center     Atomic      Atomic             Coordinates (Angstroms)
 Number     Number       Type             X           Y           Z
 ---------------------------------------------------------------------
      1          7           0       -1.066970   -0.826327   -0.006337
      2          1           0       -1.969272   -0.527169    0.359342
      3          1           0       -1.094043   -0.846747   -1.025041
      4          6           0        0.004927    0.100485    0.401046
      5          1           0        0.034569    0.105265    1.507903
      6          8           0       -0.456882    1.263565   -0.122415
      7          7           0        1.240207   -0.339454   -0.223514
      8          1           0        1.842456    0.469821   -0.345299
      9          1           0        1.725901   -1.007752    0.370069
 ---------------------------------------------------------------------
                    Distance matrix (angstroms):
                    1          2          3          4          5
     1  N    0.000000
     2  H    1.018512   0.000000
     3  H    1.019268   1.668733   0.000000
     4  C    1.474416   2.071992   2.034382   0.000000
     5  H    2.091452   2.394691   2.931876   1.107264   0.000000
     6  O    2.180213   2.392936   2.382042   1.356479   2.059398
     7  N    2.367968   3.267371   2.519626   1.452425   2.156187
     8  H    3.203069   4.002472   3.289138   2.017412   2.614520
     9  H    2.823955   3.726309   3.150292   2.047169   2.322515
                    6          7          8          9
     6  O    0.000000
     7  N    2.336665   0.000000
     8  H    2.442675   1.016101   0.000000
     9  H    3.188411   1.017281   1.645770   0.000000
 Stoichiometry    CH5N2O(2)
 Framework group  C1[X(CH5N2O)]
 Deg. of freedom    21
 Full point group                 C1      NOp   1
 Largest Abelian subgroup         C1      NOp   1
 Largest concise Abelian subgroup C1      NOp   1
                         Standard orientation:                         
 ---------------------------------------------------------------------
 Center     Atomic      Atomic             Coordinates (Angstroms)
 Number     Number       Type             X           Y           Z
 ---------------------------------------------------------------------
      1          7           0       -0.989449   -0.870563   -0.070453
      2          1           0       -1.910324   -0.595143    0.266444
      3          1           0       -0.980787   -0.880960   -1.089631
      4          6           0        0.046737    0.075300    0.382942
      5          1           0        0.037939    0.069199    1.490154
      6          8           0       -0.422543    1.233334   -0.145042
      7          7           0        1.312411   -0.330841   -0.202428
      8          1           0        1.900287    0.492706   -0.295348
      9          1           0        1.792077   -0.994445    0.401237
 ---------------------------------------------------------------------
 Rotational constants (GHZ):     11.1682556      8.5951272      5.5468129

 **********************************************************************

            Population analysis using the SCF density.

 **********************************************************************

 Orbital symmetries:
 Alpha Orbitals:
       Occupied  (A) (A) (A) (A) (A) (A) (A) (A) (A) (A) (A) (A)
                 (A) (A) (A) (A) (A)
       Virtual   (A) (A) (A) (A) (A) (A) (A) (A) (A) (A) (A) (A)
                 (A) (A) (A) (A) (A) (A) (A) (A) (A) (A) (A) (A)
                 (A) (A) (A) (A) (A) (A) (A) (A) (A) (A) (A) (A)
                 (A) (A) (A) (A) (A) (A) (A) (A) (A) (A) (A) (A)
                 (A) (A) (A) (A) (A) (A) (A) (A) (A) (A) (A) (A)
                 (A) (A) (A) (A) (A) (A) (A) (A)
 Beta  Orbitals:
       Occupied  (A) (A) (A) (A) (A) (A) (A) (A) (A) (A) (A) (A)
                 (A) (A) (A) (A)
       Virtual   (A) (A) (A) (A) (A) (A) (A) (A) (A) (A) (A) (A)
                 (A) (A) (A) (A) (A) (A) (A) (A) (A) (A) (A) (A)
                 (A) (A) (A) (A) (A) (A) (A) (A) (A) (A) (A) (A)
                 (A) (A) (A) (A) (A) (A) (A) (A) (A) (A) (A) (A)
                 (A) (A) (A) (A) (A) (A) (A) (A) (A) (A) (A) (A)
                 (A) (A) (A) (A) (A) (A) (A) (A) (A)
 The electronic state is 2-A.
 Alpha  occ. eigenvalues --  -19.15928 -14.36307 -14.31922 -10.28965  -1.03522
 Alpha  occ. eigenvalues --   -0.88951  -0.86152  -0.61882  -0.53927  -0.49526
 Alpha  occ. eigenvalues --   -0.46944  -0.43777  -0.41431  -0.34421  -0.28479
 Alpha  occ. eigenvalues --   -0.27402  -0.24804
 Alpha virt. eigenvalues --    0.07945   0.10366   0.13335   0.14419   0.17769
 Alpha virt. eigenvalues --    0.19609   0.25157   0.30576   0.53062   0.56164
 Alpha virt. eigenvalues --    0.63373   0.65395   0.67060   0.70574   0.72314
 Alpha virt. eigenvalues --    0.76644   0.80863   0.84793   0.85417   0.86689
 Alpha virt. eigenvalues --    0.87664   0.90238   0.96129   1.00007   1.06313
 Alpha virt. eigenvalues --    1.06660   1.22007   1.27257   1.30836   1.37314
 Alpha virt. eigenvalues --    1.59481   1.63304   1.68382   1.70012   1.75115
 Alpha virt. eigenvalues --    1.86787   1.87570   1.95032   2.00394   2.02504
 Alpha virt. eigenvalues --    2.06664   2.13708   2.19202   2.22751   2.24438
 Alpha virt. eigenvalues --    2.29934   2.34519   2.37701   2.43941   2.51121
 Alpha virt. eigenvalues --    2.55758   2.61062   2.67917   2.78478   2.82641
 Alpha virt. eigenvalues --    2.87370   2.94907   2.98372   3.02589   3.24156
 Alpha virt. eigenvalues --    3.28801   3.31922   3.41501   3.52830   3.70713
 Alpha virt. eigenvalues --    3.96351   4.01140   4.51713
  Beta  occ. eigenvalues --  -19.14000 -14.35624 -14.31921 -10.29046  -1.00396
  Beta  occ. eigenvalues --   -0.86563  -0.85398  -0.61153  -0.53557  -0.49007
  Beta  occ. eigenvalues --   -0.44905  -0.43220  -0.39858  -0.28507  -0.26952
  Beta  occ. eigenvalues --   -0.24275
  Beta virt. eigenvalues --   -0.12026   0.08169   0.10670   0.13451   0.14579
  Beta virt. eigenvalues --    0.17843   0.20325   0.25633   0.31337   0.53121
  Beta virt. eigenvalues --    0.56813   0.63488   0.65796   0.68719   0.71325
  Beta virt. eigenvalues --    0.72738   0.78595   0.80958   0.85011   0.86518
  Beta virt. eigenvalues --    0.87261   0.87839   0.90737   0.97819   1.00324
  Beta virt. eigenvalues --    1.07564   1.09796   1.22580   1.28404   1.31155
  Beta virt. eigenvalues --    1.38116   1.60298   1.64144   1.69522   1.71868
  Beta virt. eigenvalues --    1.77493   1.88130   1.88679   1.95906   2.01052
  Beta virt. eigenvalues --    2.04114   2.07994   2.13991   2.19430   2.22923
  Beta virt. eigenvalues --    2.24902   2.30667   2.35311   2.38148   2.44622
  Beta virt. eigenvalues --    2.51899   2.56188   2.61962   2.68318   2.79335
  Beta virt. eigenvalues --    2.83049   2.87945   2.95139   2.98487   3.03191
  Beta virt. eigenvalues --    3.24491   3.28838   3.32076   3.41682   3.52950
  Beta virt. eigenvalues --    3.73272   3.96880   4.01869   4.51765
          Condensed to atoms (all electrons):
               1          2          3          4          5          6
     1  N    6.853527   0.313220   0.303097   0.230263  -0.072041  -0.049487
     2  H    0.313220   0.455471  -0.023125  -0.025077  -0.001139   0.006647
     3  H    0.303097  -0.023125   0.443674  -0.016921   0.008870   0.005148
     4  C    0.230263  -0.025077  -0.016921   4.525103   0.395818   0.266429
     5  H   -0.072041  -0.001139   0.008870   0.395818   0.731915  -0.055748
     6  O   -0.049487   0.006647   0.005148   0.266429  -0.055748   8.285584
     7  N   -0.072223   0.006852   0.002660   0.276872  -0.081152  -0.065878
     8  H    0.005287  -0.000318  -0.000196  -0.029487   0.001924   0.003314
     9  H    0.002503  -0.000394  -0.000146  -0.017936  -0.001182   0.004438
               7          8          9
     1  N   -0.072223   0.005287   0.002503
     2  H    0.006852  -0.000318  -0.000394
     3  H    0.002660  -0.000196  -0.000146
     4  C    0.276872  -0.029487  -0.017936
     5  H   -0.081152   0.001924  -0.001182
     6  O   -0.065878   0.003314   0.004438
     7  N    6.880341   0.330460   0.311077
     8  H    0.330460   0.465983  -0.027767
     9  H    0.311077  -0.027767   0.489079
          Atomic-Atomic Spin Densities.
               1          2          3          4          5          6
     1  N    0.374937   0.002553   0.000929   0.012073  -0.003247  -0.075672
     2  H    0.002553  -0.010653   0.000378  -0.000662   0.000038  -0.000469
     3  H    0.000929   0.000378  -0.011162  -0.000535  -0.000141   0.001112
     4  C    0.012073  -0.000662  -0.000535  -0.051657   0.004407  -0.016680
     5  H   -0.003247   0.000038  -0.000141   0.004407   0.001524   0.001979
     6  O   -0.075672  -0.000469   0.001112  -0.016680   0.001979   0.835055
     7  N   -0.003747  -0.000149   0.000596   0.010297   0.002322   0.001488
     8  H    0.000330   0.000011  -0.000003  -0.000331  -0.000198   0.000111
     9  H    0.000067   0.000013  -0.000036  -0.001124  -0.000543  -0.000141
               7          8          9
     1  N   -0.003747   0.000330   0.000067
     2  H   -0.000149   0.000011   0.000013
     3  H    0.000596  -0.000003  -0.000036
     4  C    0.010297  -0.000331  -0.001124
     5  H    0.002322  -0.000198  -0.000543
     6  O    0.001488   0.000111  -0.000141
     7  N   -0.011849   0.000826   0.002692
     8  H    0.000826  -0.001588   0.000160
     9  H    0.002692   0.000160  -0.002020
 Mulliken charges and spin densities:
               1          2
     1  N   -0.514145   0.308224
     2  H    0.267863  -0.008940
     3  H    0.276939  -0.008862
     4  C    0.394936  -0.044212
     5  H    0.072735   0.006142
     6  O   -0.400446   0.746785
     7  N   -0.589009   0.002477
     8  H    0.250800  -0.000682
     9  H    0.240328  -0.000932
 Sum of Mulliken charges =   0.00000   1.00000
 Mulliken charges and spin densities with hydrogens summed into heavy atoms:
               1          2
     1  N    0.030656   0.290422
     4  C    0.467671  -0.038070
     6  O   -0.400446   0.746785
     7  N   -0.097882   0.000862
 Electronic spatial extent (au):  <R**2>=            257.3095
 Charge=              0.0000 electrons
 Dipole moment (field-independent basis, Debye):
    X=              0.1876    Y=             -1.0186    Z=              1.0944  Tot=              1.5068
 Quadrupole moment (field-independent basis, Debye-Ang):
   XX=            -18.3444   YY=            -27.8716   ZZ=            -23.5713
   XY=              2.1657   XZ=              2.0535   YZ=              0.2918
 Traceless Quadrupole moment (field-independent basis, Debye-Ang):
   XX=              4.9180   YY=             -4.6092   ZZ=             -0.3089
   XY=              2.1657   XZ=              2.0535   YZ=              0.2918
 Octapole moment (field-independent basis, Debye-Ang**2):
  XXX=             -0.8322  YYY=              1.9485  ZZZ=             -1.1163  XYY=              4.4132
  XXY=             -0.8943  XXZ=              1.6772  XZZ=             -2.9438  YZZ=             -0.3763
  YYZ=             -0.0164  XYZ=             -3.0809
 Hexadecapole moment (field-independent basis, Debye-Ang**3):
 XXXX=           -121.8855 YYYY=           -115.7119 ZZZZ=            -41.9232 XXXY=              4.5335
 XXXZ=              1.5438 YYYX=             -1.6112 YYYZ=              0.4891 ZZZX=              4.0399
 ZZZY=              1.0364 XXYY=            -41.0458 XXZZ=            -32.7012 YYZZ=            -24.8618
 XXYZ=             -3.3123 YYXZ=              3.1164 ZZXY=              1.8242
 N-N= 1.292670129859D+02 E-N=-7.870636698558D+02  KE= 2.238172735287D+02
                          Isotropic Fermi Contact Couplings
        Atom                 a.u.       MegaHertz       Gauss      10(-4) cm-1
     1  N(14)              0.00209       0.67492       0.24083       0.22513
     2  H(1)              -0.00251     -11.22124      -4.00402      -3.74300
     3  H(1)              -0.00366     -16.34281      -5.83152      -5.45137
     4  C(13)             -0.02795     -31.42161     -11.21201     -10.48112
     5  H(1)               0.00280      12.52398       4.46887       4.17755
     6  O(17)              0.08229     -49.88375     -17.79976     -16.63943
     7  N(14)             -0.00655      -2.11603      -0.75505      -0.70583
     8  H(1)              -0.00021      -0.93005      -0.33186      -0.31023
     9  H(1)               0.00022       0.96523       0.34442       0.32197
 --------------------------------------------------------
       Center         ----  Spin Dipole Couplings  ----
                      3XX-RR        3YY-RR        3ZZ-RR
 --------------------------------------------------------
     1   Atom       -0.398553      0.778988     -0.380435
     2   Atom        0.036588     -0.007970     -0.028618
     3   Atom       -0.040578     -0.001674      0.042252
     4   Atom       -0.012621      0.031126     -0.018505
     5   Atom       -0.009305      0.000110      0.009195
     6   Atom        0.519033      0.369307     -0.888340
     7   Atom        0.007137      0.009965     -0.017102
     8   Atom        0.012863     -0.004375     -0.008488
     9   Atom        0.004194     -0.000446     -0.003747
 --------------------------------------------------------
                        XY            XZ            YZ
 --------------------------------------------------------
     1   Atom        0.099495     -0.017224     -0.169248
     2   Atom        0.002703     -0.031769     -0.002632
     3   Atom        0.005722     -0.000122      0.016449
     4   Atom       -0.009542      0.016665     -0.014422
     5   Atom       -0.000923      0.008886     -0.009994
     6   Atom        1.854556      1.000707      0.964727
     7   Atom       -0.014850     -0.003354      0.000830
     8   Atom       -0.005355     -0.001881      0.000750
     9   Atom       -0.004245      0.002063     -0.001378
 --------------------------------------------------------


 ---------------------------------------------------------------------------------
              Anisotropic Spin Dipole Couplings in Principal Axis System
 ---------------------------------------------------------------------------------

       Atom             a.u.   MegaHertz   Gauss  10(-4) cm-1        Axes

              Baa    -0.4090   -15.774    -5.628    -5.261  0.8239  0.0117  0.5666
     1 N(14)  Bbb    -0.4026   -15.528    -5.541    -5.180 -0.5606  0.1635  0.8118
              Bcc     0.8116    31.302    11.169    10.441  0.0831  0.9865 -0.1413
 
              Baa    -0.0416   -22.194    -7.919    -7.403  0.3749  0.0424  0.9261
     2 H(1)   Bbb    -0.0081    -4.333    -1.546    -1.445 -0.0720  0.9973 -0.0165
              Bcc     0.0497    26.527     9.466     8.849  0.9243  0.0605 -0.3769
 
              Baa    -0.0415   -22.132    -7.897    -7.383  0.9874 -0.1551  0.0319
     3 H(1)   Bbb    -0.0063    -3.351    -1.196    -1.118  0.1572  0.9354 -0.3166
              Bcc     0.0478    25.483     9.093     8.500  0.0193  0.3177  0.9480
 
              Baa    -0.0329    -4.417    -1.576    -1.473 -0.6073  0.0873  0.7896
     4 C(13)  Bbb    -0.0059    -0.790    -0.282    -0.264  0.7475  0.3995  0.5307
              Bcc     0.0388     5.207     1.858     1.737 -0.2691  0.9126 -0.3079
 
              Baa    -0.0137    -7.301    -2.605    -2.435  0.8530 -0.2676 -0.4482
     5 H(1)   Bbb    -0.0043    -2.311    -0.824    -0.771  0.4365  0.8365  0.3313
              Bcc     0.0180     9.612     3.430     3.206  0.2862 -0.4782  0.8303
 
              Baa    -1.4133   102.268    36.492    34.113 -0.4685  0.7447 -0.4754
     6 O(17)  Bbb    -1.4078   101.865    36.348    33.979 -0.5698  0.1566  0.8068
              Bcc     2.8211  -204.133   -72.840   -68.091  0.6752  0.6488  0.3509
 
              Baa    -0.0176    -0.680    -0.243    -0.227  0.1704  0.0621  0.9834
     7 N(14)  Bbb    -0.0060    -0.233    -0.083    -0.078  0.7184  0.6752 -0.1672
              Bcc     0.0237     0.913     0.326     0.305 -0.6744  0.7350  0.0704
 
              Baa    -0.0087    -4.631    -1.652    -1.545  0.0633 -0.0943  0.9935
     8 H(1)   Bbb    -0.0059    -3.142    -1.121    -1.048  0.2806  0.9570  0.0730
              Bcc     0.0146     7.772     2.773     2.593  0.9577 -0.2742 -0.0870
 
              Baa    -0.0043    -2.303    -0.822    -0.768 -0.1390  0.1932  0.9713
     9 H(1)   Bbb    -0.0030    -1.575    -0.562    -0.525  0.5281  0.8441 -0.0923
              Bcc     0.0073     3.878     1.384     1.294  0.8377 -0.5001  0.2194
 

 ---------------------------------------------------------------------------------

 1\1\GINC-COMET-03-16\FOpt\UB3LYP\6-31G(d,p)\C1H5N2O1(2)\SCIGAP\13-Jan-
 2016\0\\# b3lyp/6-31g(d,p) opt\\Title Card Required\\0,2\N,-1.06696959
 58,-0.8263268036,-0.0063369318\H,-1.9692721296,-0.5271691753,0.3593417
 345\H,-1.094043111,-0.8467469816,-1.0250408903\C,0.0049268997,0.100485
 0902,0.4010462459\H,0.0345689926,0.1052647574,1.5079026894\O,-0.456882
 2631,1.2635653343,-0.1224152645\N,1.240206936,-0.3394540247,-0.2235144
 419\H,1.8424557152,0.4698212845,-0.3452992956\H,1.7259008961,-1.007752
 0112,0.3700685544\\Version=ES64L-G09RevD.01\State=2-A\HF=-225.7753104\
 S2=0.75518\S2-1=0.\S2A=0.750014\RMSD=6.907e-09\RMSF=9.802e-06\Dipole=0
 .0799479,-0.3981069,0.4319078\Quadrupole=3.8256504,-3.4913617,-0.33428
 88,1.4716477,1.3756193,0.1630966\PG=C01 [X(C1H5N2O1)]\\@


 THE FIRST AND LAST THING REQUIRED OF GENIUS IS THE LOVE OF TRUTH.

                          -- GOETHE
 Job cpu time:       0 days  0 hours  8 minutes 46.3 seconds.
 File lengths (MBytes):  RWF=      8 Int=      0 D2E=      0 Chk=      2 Scr=      1
 Normal termination of Gaussian 09 at Wed Jan 13 10:21:34 2016.
